
                                 *****************
                                 * O   R   C   A *
                                 *****************

                                            #,                                       
                                            ###                                      
                                            ####                                     
                                            #####                                    
                                            ######                                   
                                           ########,                                 
                                     ,,################,,,,,                         
                               ,,#################################,,                 
                          ,,##########################################,,             
                       ,#########################################, ''#####,          
                    ,#############################################,,   '####,        
                  ,##################################################,,,,####,       
                ,###########''''           ''''###############################       
              ,#####''   ,,,,##########,,,,          '''####'''          '####       
            ,##' ,,,,###########################,,,                        '##       
           ' ,,###''''                  '''############,,,                           
         ,,##''                                '''############,,,,        ,,,,,,###''
      ,#''                                            '''#######################'''  
     '                                                          ''''####''''         
             ,#######,   #######,   ,#######,      ##                                
            ,#'     '#,  ##    ##  ,#'     '#,    #''#        ######   ,####,        
            ##       ##  ##   ,#'  ##            #'  '#       #        #'  '#        
            ##       ##  #######   ##           ,######,      #####,   #    #        
            '#,     ,#'  ##    ##  '#,     ,#' ,#      #,         ##   #,  ,#        
             '#######'   ##     ##  '#######'  #'      '#     #####' # '####'        



                  #######################################################
                  #                        -***-                        #
                  #          Department of theory and spectroscopy      #
                  #    Directorship and core code : Frank Neese         #
                  #        Max Planck Institute fuer Kohlenforschung    #
                  #                Kaiser Wilhelm Platz 1               #
                  #                 D-45470 Muelheim/Ruhr               #
                  #                      Germany                        #
                  #                                                     #
                  #                  All rights reserved                #
                  #                        -***-                        #
                  #######################################################


                         Program Version 5.0.3 -  RELEASE  -


 With contributions from (in alphabetic order):
   Daniel Aravena         : Magnetic Suceptibility
   Michael Atanasov       : Ab Initio Ligand Field Theory (pilot matlab implementation)
   Alexander A. Auer      : GIAO ZORA, VPT2 properties, NMR spectrum
   Ute Becker             : Parallelization
   Giovanni Bistoni       : ED, misc. LED, open-shell LED, HFLD
   Martin Brehm           : Molecular dynamics
   Dmytro Bykov           : SCF Hessian
   Vijay G. Chilkuri      : MRCI spin determinant printing, contributions to CSF-ICE
   Dipayan Datta          : RHF DLPNO-CCSD density
   Achintya Kumar Dutta   : EOM-CC, STEOM-CC
   Dmitry Ganyushin       : Spin-Orbit,Spin-Spin,Magnetic field MRCI
   Miquel Garcia          : C-PCM and meta-GGA Hessian, CC/C-PCM, Gaussian charge scheme
   Yang Guo               : DLPNO-NEVPT2, F12-NEVPT2, CIM, IAO-localization
   Andreas Hansen         : Spin unrestricted coupled pair/coupled cluster methods
   Benjamin Helmich-Paris : MC-RPA, TRAH-SCF, COSX integrals
   Lee Huntington         : MR-EOM, pCC
   Robert Izsak           : Overlap fitted RIJCOSX, COSX-SCS-MP3, EOM
   Marcus Kettner         : VPT2
   Christian Kollmar      : KDIIS, OOCD, Brueckner-CCSD(T), CCSD density, CASPT2, CASPT2-K
   Simone Kossmann        : Meta GGA functionals, TD-DFT gradient, OOMP2, MP2 Hessian
   Martin Krupicka        : Initial AUTO-CI
   Lucas Lang             : DCDCAS
   Marvin Lechner         : AUTO-CI (C++ implementation), FIC-MRCC
   Dagmar Lenk            : GEPOL surface, SMD
   Dimitrios Liakos       : Extrapolation schemes; Compound Job, initial MDCI parallelization
   Dimitrios Manganas     : Further ROCIS development; embedding schemes
   Dimitrios Pantazis     : SARC Basis sets
   Anastasios Papadopoulos: AUTO-CI, single reference methods and gradients
   Taras Petrenko         : DFT Hessian,TD-DFT gradient, ASA, ECA, R-Raman, ABS, FL, XAS/XES, NRVS
   Peter Pinski           : DLPNO-MP2, DLPNO-MP2 Gradient
   Christoph Reimann      : Effective Core Potentials
   Marius Retegan         : Local ZFS, SOC
   Christoph Riplinger    : Optimizer, TS searches, QM/MM, DLPNO-CCSD(T), (RO)-DLPNO pert. Triples
   Tobias Risthaus        : Range-separated hybrids, TD-DFT gradient, RPA, STAB
   Michael Roemelt        : Original ROCIS implementation
   Masaaki Saitow         : Open-shell DLPNO-CCSD energy and density
   Barbara Sandhoefer     : DKH picture change effects
   Avijit Sen             : IP-ROCIS
   Kantharuban Sivalingam : CASSCF convergence, NEVPT2, FIC-MRCI
   Bernardo de Souza      : ESD, SOC TD-DFT
   Georgi Stoychev        : AutoAux, RI-MP2 NMR, DLPNO-MP2 response
   Willem Van den Heuvel  : Paramagnetic NMR
   Boris Wezisla          : Elementary symmetry handling
   Frank Wennmohs         : Technical directorship


 We gratefully acknowledge several colleagues who have allowed us to
 interface, adapt or use parts of their codes:
   Stefan Grimme, W. Hujo, H. Kruse, P. Pracht,  : VdW corrections, initial TS optimization,
                  C. Bannwarth, S. Ehlert          DFT functionals, gCP, sTDA/sTD-DF
   Ed Valeev, F. Pavosevic, A. Kumar             : LibInt (2-el integral package), F12 methods
   Garnet Chan, S. Sharma, J. Yang, R. Olivares  : DMRG
   Ulf Ekstrom                                   : XCFun DFT Library
   Mihaly Kallay                                 : mrcc  (arbitrary order and MRCC methods)
   Jiri Pittner, Ondrej Demel                    : Mk-CCSD
   Frank Weinhold                                : gennbo (NPA and NBO analysis)
   Christopher J. Cramer and Donald G. Truhlar   : smd solvation model
   Lars Goerigk                                  : TD-DFT with DH, B97 family of functionals
   V. Asgeirsson, H. Jonsson                     : NEB implementation
   FAccTs GmbH                                   : IRC, NEB, NEB-TS, DLPNO-Multilevel, CI-OPT
                                                   MM, QMMM, 2- and 3-layer-ONIOM, Crystal-QMMM,
                                                   LR-CPCM, SF, NACMEs, symmetry and pop. for TD-DFT,
                                                   nearIR, NL-DFT gradient (VV10), updates on ESD,
                                                   ML-optimized integration grids
   S Lehtola, MJT Oliveira, MAL Marques          : LibXC Library
   Liviu Ungur et al                             : ANISO software


 Your calculation uses the libint2 library for the computation of 2-el integrals
 For citations please refer to: http://libint.valeyev.net

 Your ORCA version has been built with support for libXC version: 5.1.0
 For citations please refer to: https://tddft.org/programs/libxc/

 This ORCA versions uses:
   CBLAS   interface :  Fast vector & matrix operations
   LAPACKE interface :  Fast linear algebra routines
   SCALAPACK package :  Parallel linear algebra routines
   Shared memory     :  Shared parallel matrices
   BLAS/LAPACK       :  OpenBLAS 0.3.15  USE64BITINT DYNAMIC_ARCH NO_AFFINITY SkylakeX SINGLE_THREADED
        Core in use  :  SkylakeX
   Copyright (c) 2011-2014, The OpenBLAS Project




***************************************
The coordinates will be read from file: GLASS_108188.xyz
***************************************


================================================================================

----- Orbital basis set information -----
Your calculation utilizes the basis: 6-311++G(d,p)
   H, Li - Ne  : R. Krishnan, J. S. Binkley, R. Seeger and J. A. Pople, J. Chem. Phys. 72, 650 (1980).
   Na - Ar     : A. D. McLean and G. S. Chandler J. Chem. Phys. 72, 5639, (1980).
   K  - Ca     : J.-P. Blaudeau, M. P. McGrath, L. A. Curtiss and L. Radom, J. Chem. Phys. 107, 5016 (1997).
   Ga - Kr     : L. A. Curtiss, M. P. McGrath, J.-P. Blandeau, N. E. Davis, R. C. Binning and L. Radom, J. Chem. Phys. 103, 6104 (1995).
   Pol./Diff.
   H, Li - Cl  : T. Clark, J. Chandrasekhar and P. v. R. Schleyer, J. Comp. Chem. 4, 294 (1983).
   H - Ne      : M. J. Frisch, J. A. Pople and J. S. Binkley, J. Chem. Phys. 80, 3265 (1984).

----- AuxJ basis set information -----
Your calculation utilizes the auxiliary basis: def2/J
   F. Weigend, Phys. Chem. Chem. Phys. 8, 1057 (2006).

================================================================================
                                        WARNINGS
                       Please study these warnings very carefully!
================================================================================


INFO   : the flag for use of the SHARK integral package has been found!

================================================================================
                                       INPUT FILE
================================================================================
NAME = GLASS_108188.inp
|  1> !MiniPrint
|  2> !B3LYP 6-311++G(d,p) extremescf CPCM(water)
|  3> %pal nprocs 30
|  4> end
|  5> 
|  6> # Coordinate type     Charge  Multiplicity
|  7> * xyzfile 0 1 GLASS_108188.xyz
|  8> 
|  9>                          ****END OF INPUT****
================================================================================

                       ****************************
                       * Single Point Calculation *
                       ****************************

---------------------------------
CARTESIAN COORDINATES (ANGSTROEM)
---------------------------------
  C     -5.620600   -2.420000    0.000000
  N     -4.143400   -2.159500    0.000000
  C     -3.179200   -3.308600    0.000000
  C     -3.630400   -0.750000    0.000000
  C     -3.630400    0.750000    0.000000
  C     -2.331300    1.500000    0.000000
  C     -1.032300    0.750000    0.000000
  C      0.394300    1.213500    0.000000
  C      0.409300    2.720200    0.000000
  C     -0.804200    3.601900    0.000000
  C     -2.174500    2.991800    0.000000
  N      1.276000    0.000000    0.000000
  C      0.394300   -1.213500    0.000000
  O      0.857800   -2.640100    0.000000
  N     -1.032300   -0.750000    0.000000
  C     -2.331300   -1.500000    0.000000
  H     -7.097800   -2.680500    0.000000
  H     -5.360100   -3.897200    0.000000
  H     -6.059200   -0.985600    0.000000
  H     -2.215000   -4.457700    0.000000
  H     -4.328300   -4.272800    0.000000
  H     -2.510600   -2.874500    0.000000
  H     -4.792300   -0.394700    0.000000
  H     -4.826900    0.539000    0.000000
  H     -4.143400    2.159500    0.000000
  H      1.779600    3.330300    0.000000
  H     -0.647400    5.093700    0.000000
  H     -3.388100    3.873500    0.000000
  H      2.776000    0.000000    0.000000
  H     -1.611500   -2.171200    0.000000
  H     -2.719600   -2.296100    0.000000

----------------------------
CARTESIAN COORDINATES (A.U.)
----------------------------
  NO LB      ZA    FRAG     MASS         X           Y           Z
   0 C     6.0000    0    12.011  -10.621395   -4.573137    0.000000
   1 N     7.0000    0    14.007   -7.829891   -4.080864    0.000000
   2 C     6.0000    0    12.011   -6.007817   -6.252348    0.000000
   3 C     6.0000    0    12.011   -6.860462   -1.417295    0.000000
   4 C     6.0000    0    12.011   -6.860462    1.417295    0.000000
   5 C     6.0000    0    12.011   -4.405519    2.834589    0.000000
   6 C     6.0000    0    12.011   -1.950764    1.417295    0.000000
   7 C     6.0000    0    12.011    0.745119    2.293183    0.000000
   8 C     6.0000    0    12.011    0.773465    5.140433    0.000000
   9 C     6.0000    0    12.011   -1.519718    6.806605    0.000000
  10 C     6.0000    0    12.011   -4.109209    5.653683    0.000000
  11 N     7.0000    0    14.007    2.411291    0.000000    0.000000
  12 C     6.0000    0    12.011    0.745119   -2.293183    0.000000
  13 O     8.0000    0    15.999    1.621007   -4.989066    0.000000
  14 N     7.0000    0    14.007   -1.950764   -1.417295    0.000000
  15 C     6.0000    0    12.011   -4.405519   -2.834589    0.000000
  16 H     1.0000    0     1.008  -13.412898   -5.065411    0.000000
  17 H     1.0000    0     1.008  -10.129121   -7.364641    0.000000
  18 H     1.0000    0     1.008  -11.450229   -1.862514    0.000000
  19 H     1.0000    0     1.008   -4.185743   -8.423832    0.000000
  20 H     1.0000    0     1.008   -8.179302   -8.074422    0.000000
  21 H     1.0000    0     1.008   -4.744346   -5.432018    0.000000
  22 H     1.0000    0     1.008   -9.056135   -0.745875    0.000000
  23 H     1.0000    0     1.008   -9.121519    1.018562    0.000000
  24 H     1.0000    0     1.008   -7.829891    4.080864    0.000000
  25 H     1.0000    0     1.008    3.362957    6.293355    0.000000
  26 H     1.0000    0     1.008   -1.223409    9.625698    0.000000
  27 H     1.0000    0     1.008   -6.402581    7.319854    0.000000
  28 H     1.0000    0     1.008    5.245880    0.000000    0.000000
  29 H     1.0000    0     1.008   -3.045294   -4.102973    0.000000
  30 H     1.0000    0     1.008   -5.139299   -4.339000    0.000000



           ************************************************************
           *        Program running with 30 parallel MPI-processes    *
           *              working on a common directory               *
           ************************************************************
------------------------------------------------------------------------------
                   ___                                                        
                  /   \      - P O W E R E D   B Y -                         
                 /     \                                                     
                 |  |  |   _    _      __       _____    __    __             
                 |  |  |  | |  | |    /  \     |  _  \  |  |  /  |          
                  \  \/   | |  | |   /    \    | | | |  |  | /  /          
                 / \  \   | |__| |  /  /\  \   | |_| |  |  |/  /          
                |  |  |   |  __  | /  /__\  \  |    /   |      \           
                |  |  |   | |  | | |   __   |  |    \   |  |\   \          
                \     /   | |  | | |  |  |  |  | |\  \  |  | \   \       
                 \___/    |_|  |_| |__|  |__|  |_| \__\ |__|  \__/        
                                                                              
                      - O R C A' S   B I G   F R I E N D -                    
                                      &                                       
                       - I N T E G R A L  F E E D E R -                       
                                                                              
 v1 FN, 2020, v2 2021                                                         
------------------------------------------------------------------------------


Reading SHARK input file GLASS_108188.SHARKINP.tmp ... ok
----------------------
SHARK INTEGRAL PACKAGE
----------------------

Number of atoms                             ...     31
Number of basis functions                   ...    457
Number of shells                            ...    235
Maximum angular momentum                    ...      2
Integral batch strategy                     ... SHARK/LIBINT Hybrid
RI-J (if used) integral strategy            ... SPLIT-RIJ (Revised 2003 algorithm where possible)
Printlevel                                  ...      1
Contraction scheme used                     ... SEGMENTED contraction
Coulomb Range Separation                    ... NOT USED
Exchange Range Separation                   ... NOT USED
Finite Nucleus Model                        ... NOT USED
Auxiliary Coulomb fitting basis             ... AVAILABLE
   # of basis functions in Aux-J            ...    949
   # of shells in Aux-J                     ...    315
   Maximum angular momentum in Aux-J        ...      4
Auxiliary J/K fitting basis                 ... NOT available
Auxiliary Correlation fitting basis         ... NOT available
Auxiliary 'external' fitting basis          ... NOT available
Integral threshold                          ...     3.000000e-16
Primitive cut-off                           ...     3.000000e-16
Primitive pair pre-selection threshold      ...     3.000000e-16

Calculating pre-screening integrals         ... done (  0.0 sec) Dimension = 235
Organizing shell pair data                  ... done (  0.3 sec)
Shell pair information
Total number of shell pairs                 ...     27730
Shell pairs after pre-screening             ...     24283
Total number of primitive shell pairs       ...     84226
Primitive shell pairs kept                  ...     53454
          la=0 lb=0:   8622 shell pairs
          la=1 lb=0:   9743 shell pairs
          la=1 lb=1:   2798 shell pairs
          la=2 lb=0:   1905 shell pairs
          la=2 lb=1:   1096 shell pairs
          la=2 lb=2:    119 shell pairs

Calculating one electron integrals          ... done (  0.0 sec)
Calculating RI/J V-Matrix + Cholesky decomp.... done (  0.1 sec)
Calculating Nuclear repulsion               ... done (  0.0 sec) ENN=   1062.342475102897 Eh

SHARK setup successfully completed in   0.7 seconds

Maximum memory used throughout the entire GTOINT-calculation: 34.3 MB


           ************************************************************
           *        Program running with 30 parallel MPI-processes    *
           *              working on a common directory               *
           ************************************************************

Diagonalization of the overlap matrix:
Smallest eigenvalue                        ... 3.187e-07
Time for diagonalization                   ...    0.033 sec
Threshold for overlap eigenvalues          ... 1.000e-08
Number of eigenvalues below threshold      ... 0
Time for construction of square roots      ...    0.023 sec
Total time needed                          ...    0.058 sec

Time for model grid setup =    0.147 sec

Loading Hartree-Fock densities                     ... done
Calculating cut-offs                               ... done
Initializing the effective Hamiltonian             ... done
Setting up the integral package (SHARK)            ... done
Starting the Coulomb interaction                   ... done (   0.1 sec)
Reading the grid                                   ... done
Mapping shells                                     ... done
Starting the XC term evaluation                    ... done (   0.1 sec)
  promolecular density results
     # of electrons  =    115.997133137
     EX              =    -93.678585784
     EC              =     -3.896730926
     EX+EC           =    -97.575316709
Transforming the Hamiltonian                       ... done (   0.0 sec)
Diagonalizing the Hamiltonian                      ... done (   0.0 sec)
Back transforming the eigenvectors                 ... done (   0.0 sec)
Now organizing SCF variables                       ... done
-------------------
DFT GRID GENERATION
-------------------

General Integration Accuracy     IntAcc      ... 4.388
Radial Grid Type                 RadialGrid  ... OptM3 with GC (2021)
Angular Grid (max. ang.)         AngularGrid ... 4 (Lebedev-302)
Angular grid pruning method      GridPruning ... 4 (adaptive)
Weight generation scheme         WeightScheme... Becke
Basis function cutoff            BFCut       ... 3.0000e-16
Integration weight cutoff        WCut        ... 1.0000e-14
Angular grids for H and He will be reduced by one unit
Partially contracted basis set               ... off
Rotationally invariant grid construction     ... off

Total number of grid points                  ...   149902
Total number of batches                      ...     2358
Average number of points per batch           ...       63
Average number of grid points per atom       ...     4836
Time for grid setup =    0.767 sec

--------------------
COSX GRID GENERATION
--------------------

GRIDX 1
-------
General Integration Accuracy     IntAcc      ... 3.816
Radial Grid Type                 RadialGrid  ... OptM3 with GC (2021)
Angular Grid (max. ang.)         AngularGrid ... 1 (Lebedev-50)
Angular grid pruning method      GridPruning ... 4 (adaptive)
Weight generation scheme         WeightScheme... Becke
Basis function cutoff            BFCut       ... 3.0000e-16
Integration weight cutoff        WCut        ... 1.0000e-14
Angular grids for H and He will be reduced by one unit
Partially contracted basis set               ... on
Rotationally invariant grid construction     ... off

Total number of grid points                  ...    18771
Total number of batches                      ...      308
Average number of points per batch           ...       60
Average number of grid points per atom       ...      606
UseSFitting                                  ... on

GRIDX 2
-------
General Integration Accuracy     IntAcc      ... 4.020
Radial Grid Type                 RadialGrid  ... OptM3 with GC (2021)
Angular Grid (max. ang.)         AngularGrid ... 2 (Lebedev-110)
Angular grid pruning method      GridPruning ... 4 (adaptive)
Weight generation scheme         WeightScheme... Becke
Basis function cutoff            BFCut       ... 3.0000e-16
Integration weight cutoff        WCut        ... 1.0000e-14
Angular grids for H and He will be reduced by one unit
Partially contracted basis set               ... on
Rotationally invariant grid construction     ... off

Total number of grid points                  ...    44692
Total number of batches                      ...      715
Average number of points per batch           ...       62
Average number of grid points per atom       ...     1442
UseSFitting                                  ... on

GRIDX 3
-------
General Integration Accuracy     IntAcc      ... 4.338
Radial Grid Type                 RadialGrid  ... OptM3 with GC (2021)
Angular Grid (max. ang.)         AngularGrid ... 3 (Lebedev-194)
Angular grid pruning method      GridPruning ... 4 (adaptive)
Weight generation scheme         WeightScheme... Becke
Basis function cutoff            BFCut       ... 3.0000e-16
Integration weight cutoff        WCut        ... 1.0000e-14
Angular grids for H and He will be reduced by one unit
Partially contracted basis set               ... on
Rotationally invariant grid construction     ... off

Total number of grid points                  ...    99016
Total number of batches                      ...     1562
Average number of points per batch           ...       63
Average number of grid points per atom       ...     3194
UseSFitting                                  ... on

Time for X-Grid setup             =    0.876 sec


--------------------
CPCM SOLVATION MODEL
--------------------
CPCM parameters:
  Epsilon                                         ...      80.4000
  Refrac                                          ...       1.3300
  Rsolv                                           ...       1.3000
  Surface type                                    ... GAUSSIAN VDW
  Epsilon function type                           ...         CPCM
Radii:
 Radius for C  used is    3.8550 Bohr (=   2.0400 Ang.)
 Radius for N  used is    3.5149 Bohr (=   1.8600 Ang.)
 Radius for O  used is    3.4469 Bohr (=   1.8240 Ang.)
 Radius for H  used is    2.4944 Bohr (=   1.3200 Ang.)
Calculating surface                               ...        done! (  0.0s)
GEPOL surface points                              ...         1559
GEPOL Volume                                      ...    1901.5069
GEPOL Surface-area                                ...     992.5382
Calculating surface distance matrix               ...        done! (  0.0s)
Performing Cholesky decomposition & store         ...        done! (  0.2s)
Overall time for CPCM initialization              ...                 0.2s
--------------
SCF ITERATIONS
--------------
ITER       Energy         Delta-E        Max-DP      RMS-DP      [F,P]     Damp
               ***  Starting incremental Fock matrix formation  ***
  0   -702.9604102150   0.000000000000 5.33813734  0.02246997  0.3738764 0.7000
  1   -703.2718881381  -0.311477923098 1.83217053  0.01280951  0.1225546 0.7000
                               ***Turning on DIIS***
  2   -703.3482284200  -0.076340281899 3.96414925  0.02214815  0.0469100 0.0000
  3   -703.5026007723  -0.154372352292 1.80351643  0.01247231  0.0696393 0.0000
  4   -703.5343893198  -0.031788547508 1.16750089  0.00745065  0.0441074 0.0000
  5   -703.5448651609  -0.010475841124 0.62448093  0.00469365  0.0091334 0.0000
  6   -703.5454784383  -0.000613277369 0.18682683  0.00163268  0.0087006 0.0000
                      *** Initiating the SOSCF procedure ***
                           *** Shutting down DIIS ***
                      *** Re-Reading the Fockian *** 
                      *** Removing any level shift *** 
ITER      Energy       Delta-E        Grad      Rot      Max-DP    RMS-DP
  7   -703.54565280  -0.0001743619  0.000585  0.000585  0.097917  0.000674
               *** Restarting incremental Fock matrix formation ***
  8   -703.54573097  -0.0000781694  0.000338  0.004476  0.291602  0.001321
  9   -703.54574008  -0.0000091063  0.000466  0.004393  0.263183  0.001210
 10   -703.54574195  -0.0000018723  0.000350  0.002032  0.148238  0.000781
 11   -703.54574881  -0.0000068612  0.000236  0.001691  0.132815  0.000655
 12   -703.54574708   0.0000017325  0.000321  0.001857  0.070337  0.000410
 13   -703.54575147  -0.0000043937  0.000089  0.000778  0.073844  0.000330
 14   -703.54575061   0.0000008635  0.000155  0.000549  0.048405  0.000238
 15   -703.54575209  -0.0000014813  0.000014  0.000204  0.009425  0.000042
 16   -703.54575205   0.0000000352  0.000031  0.000085  0.002610  0.000014
 17   -703.54575211  -0.0000000521  0.000005  0.000055  0.005962  0.000026
 18   -703.54575210   0.0000000051  0.000009  0.000026  0.002895  0.000013
 19   -703.54575211  -0.0000000088  0.000002  0.000021  0.002337  0.000009
 20   -703.54575211   0.0000000007  0.000002  0.000012  0.001203  0.000005
 21   -703.54575211  -0.0000000008  0.000001  0.000011  0.000501  0.000002
 22   -703.54575211   0.0000000002  0.000001  0.000005  0.000266  0.000001
 23   -703.54575211  -0.0000000000  0.000000  0.000004  0.000180  0.000001
 24   -703.54575211   0.0000000000  0.000000  0.000001  0.000052  0.000000
 25   -703.54575211  -0.0000000000  0.000000  0.000001  0.000069  0.000000
 26   -703.54575211   0.0000000000  0.000000  0.000001  0.000043  0.000000
 27   -703.54575211   0.0000000000  0.000000  0.000000  0.000020  0.000000
               *** Restarting incremental Fock matrix formation ***
 28   -703.54575211   0.0000000000  0.000000  0.000000  0.000011  0.000000
 29   -703.54575211  -0.0000000000  0.000000  0.000000  0.000017  0.000000
 30   -703.54575211   0.0000000000  0.000000  0.000000  0.000004  0.000000
                           ***RMSP convergence achieved***
                           ***MAXP convergence achieved***
                       ***Gradient convergence achieved***
                    ***Orbital Rotation convergence achieved***
 31   -703.54575211  -0.0000000000  0.000000  0.000000  0.000000  0.000000
                          ***Energy convergence achieved***
              ***Rediagonalizing the Fockian in SOSCF/NRSCF***

               *****************************************************
               *                     SUCCESS                       *
               *           SCF CONVERGED AFTER  32 CYCLES          *
               *****************************************************

Old exchange energy                            =    -18.721418655 Eh
New exchange energy                            =    -18.721429907 Eh
Exchange energy change after final integration =     -0.000011252 Eh
Total energy after final integration           =   -703.545763361 Eh
Final COS-X integration done in                =     4.755 sec
Total Energy       :         -703.54576336 Eh          -19144.45351 eV
  Last Energy change         ...    0.0000e+00  Tolerance :   1.0000e-14
  Last MAX-Density change    ...    2.4869e-14  Tolerance :   1.0000e-14
             **** THE GBW FILE WAS UPDATED (GLASS_108188.gbw) ****
             **** DENSITY GLASS_108188.scfp WAS UPDATED ****
             **** ENERGY FILE WAS UPDATED (GLASS_108188.en.tmp) ****
             **** THE GBW FILE WAS UPDATED (GLASS_108188.gbw) ****
             **** DENSITY GLASS_108188.scfp WAS UPDATED ****
----------------
ORBITAL ENERGIES
----------------

  NO   OCC          E(Eh)            E(eV) 
   0   2.0000     -19.108989      -519.9820 
   1   2.0000     -14.469301      -393.7297 
   2   2.0000     -14.413790      -392.2192 
   3   2.0000     -14.410882      -392.1400 
   4   2.0000     -10.340728      -281.3855 
   5   2.0000     -10.300198      -280.2826 
   6   2.0000     -10.296672      -280.1867 
   7   2.0000     -10.270068      -279.4627 
   8   2.0000     -10.257236      -279.1136 
   9   2.0000     -10.248407      -278.8733 
  10   2.0000     -10.242059      -278.7006 
  11   2.0000     -10.238903      -278.6147 
  12   2.0000     -10.236376      -278.5459 
  13   2.0000     -10.233260      -278.4612 
  14   2.0000     -10.208782      -277.7951 
  15   2.0000     -10.201400      -277.5942 
  16   2.0000      -1.145048       -31.1583 
  17   2.0000      -0.994161       -27.0525 
  18   2.0000      -0.942163       -25.6376 
  19   2.0000      -0.913004       -24.8441 
  20   2.0000      -0.890966       -24.2444 
  21   2.0000      -0.839080       -22.8325 
  22   2.0000      -0.814532       -22.1645 
  23   2.0000      -0.751399       -20.4466 
  24   2.0000      -0.729539       -19.8518 
  25   2.0000      -0.718782       -19.5591 
  26   2.0000      -0.691531       -18.8175 
  27   2.0000      -0.636641       -17.3239 
  28   2.0000      -0.614646       -16.7254 
  29   2.0000      -0.597987       -16.2720 
  30   2.0000      -0.562746       -15.3131 
  31   2.0000      -0.549911       -14.9638 
  32   2.0000      -0.525753       -14.3065 
  33   2.0000      -0.502169       -13.6647 
  34   2.0000      -0.488836       -13.3019 
  35   2.0000      -0.470592       -12.8055 
  36   2.0000      -0.464295       -12.6341 
  37   2.0000      -0.450242       -12.2517 
  38   2.0000      -0.433671       -11.8008 
  39   2.0000      -0.433565       -11.7979 
  40   2.0000      -0.422055       -11.4847 
  41   2.0000      -0.409605       -11.1459 
  42   2.0000      -0.393170       -10.6987 
  43   2.0000      -0.382103       -10.3975 
  44   2.0000      -0.359740        -9.7890 
  45   2.0000      -0.352502        -9.5921 
  46   2.0000      -0.349893        -9.5211 
  47   2.0000      -0.348118        -9.4728 
  48   2.0000      -0.329869        -8.9762 
  49   2.0000      -0.305139        -8.3033 
  50   2.0000      -0.292935        -7.9712 
  51   2.0000      -0.281658        -7.6643 
  52   2.0000      -0.271002        -7.3743 
  53   2.0000      -0.267510        -7.2793 
  54   2.0000      -0.235116        -6.3978 
  55   2.0000      -0.223144        -6.0721 
  56   2.0000      -0.193819        -5.2741 
  57   2.0000      -0.160506        -4.3676 
  58   0.0000      -0.118439        -3.2229 
  59   0.0000      -0.117352        -3.1933 
  60   0.0000      -0.111687        -3.0392 
  61   0.0000      -0.083117        -2.2617 
  62   0.0000      -0.065665        -1.7868 
  63   0.0000      -0.052819        -1.4373 
  64   0.0000      -0.050477        -1.3735 
  65   0.0000      -0.035058        -0.9540 
  66   0.0000      -0.033037        -0.8990 
  67   0.0000      -0.029830        -0.8117 
  68   0.0000      -0.002281        -0.0621 
  69   0.0000       0.003430         0.0933 
  70   0.0000       0.009960         0.2710 
  71   0.0000       0.018054         0.4913 
  72   0.0000       0.023975         0.6524 
  73   0.0000       0.026719         0.7271 
  74   0.0000       0.036464         0.9922 
  75   0.0000       0.038343         1.0434 
  76   0.0000       0.041977         1.1422 
  77   0.0000       0.049193         1.3386 
  78   0.0000       0.054978         1.4960 
  79   0.0000       0.061263         1.6670 
  80   0.0000       0.062126         1.6905 
  81   0.0000       0.064509         1.7554 
  82   0.0000       0.065343         1.7781 
  83   0.0000       0.065985         1.7956 
  84   0.0000       0.074902         2.0382 
  85   0.0000       0.076999         2.0952 
  86   0.0000       0.081318         2.2128 
  87   0.0000       0.084978         2.3124 
  88   0.0000       0.086164         2.3446 
  89   0.0000       0.091440         2.4882 
  90   0.0000       0.092268         2.5107 
  91   0.0000       0.096781         2.6336 
  92   0.0000       0.099767         2.7148 
  93   0.0000       0.102616         2.7923 
  94   0.0000       0.105370         2.8673 
  95   0.0000       0.108210         2.9445 
  96   0.0000       0.111175         3.0252 
  97   0.0000       0.117842         3.2067 
  98   0.0000       0.121183         3.2975 
  99   0.0000       0.130731         3.5574 
 100   0.0000       0.133147         3.6231 
 101   0.0000       0.134116         3.6495 
 102   0.0000       0.134993         3.6733 
 103   0.0000       0.135669         3.6917 
 104   0.0000       0.137399         3.7388 
 105   0.0000       0.144450         3.9307 
 106   0.0000       0.147999         4.0272 
 107   0.0000       0.157775         4.2933 
 108   0.0000       0.159197         4.3320 
 109   0.0000       0.165345         4.4993 
 110   0.0000       0.166281         4.5247 
 111   0.0000       0.167387         4.5548 
 112   0.0000       0.172354         4.6900 
 113   0.0000       0.178588         4.8596 
 114   0.0000       0.180522         4.9122 
 115   0.0000       0.186511         5.0752 
 116   0.0000       0.187569         5.1040 
 117   0.0000       0.193733         5.2717 
 118   0.0000       0.197406         5.3717 
 119   0.0000       0.203996         5.5510 
 120   0.0000       0.204771         5.5721 
 121   0.0000       0.206220         5.6115 
 122   0.0000       0.210241         5.7209 
 123   0.0000       0.213786         5.8174 
 124   0.0000       0.221639         6.0311 
 125   0.0000       0.223382         6.0785 
 126   0.0000       0.226911         6.1746 
 127   0.0000       0.231899         6.3103 
 128   0.0000       0.231966         6.3121 
 129   0.0000       0.241426         6.5695 
 130   0.0000       0.245079         6.6689 
 131   0.0000       0.245403         6.6778 
 132   0.0000       0.248395         6.7592 
 133   0.0000       0.254248         6.9184 
 134   0.0000       0.256911         6.9909 
 135   0.0000       0.261644         7.1197 
 136   0.0000       0.264537         7.1984 
 137   0.0000       0.265131         7.2146 
 138   0.0000       0.274497         7.4695 
 139   0.0000       0.281457         7.6588 
 140   0.0000       0.286303         7.7907 
 141   0.0000       0.288090         7.8393 
 142   0.0000       0.289935         7.8895 
 143   0.0000       0.294751         8.0206 
 144   0.0000       0.299537         8.1508 
 145   0.0000       0.303066         8.2468 
 146   0.0000       0.309434         8.4201 
 147   0.0000       0.315482         8.5847 
 148   0.0000       0.322724         8.7818 
 149   0.0000       0.324591         8.8326 
 150   0.0000       0.329136         8.9563 
 151   0.0000       0.333762         9.0821 
 152   0.0000       0.339412         9.2359 
 153   0.0000       0.341490         9.2924 
 154   0.0000       0.348486         9.4828 
 155   0.0000       0.352308         9.5868 
 156   0.0000       0.364340         9.9142 
 157   0.0000       0.370617        10.0850 
 158   0.0000       0.378279        10.2935 
 159   0.0000       0.386006        10.5038 
 160   0.0000       0.392933        10.6922 
 161   0.0000       0.395515        10.7625 
 162   0.0000       0.400588        10.9006 
 163   0.0000       0.401832        10.9344 
 164   0.0000       0.405065        11.0224 
 165   0.0000       0.417985        11.3740 
 166   0.0000       0.437159        11.8957 
 167   0.0000       0.440280        11.9806 
 168   0.0000       0.449545        12.2327 
 169   0.0000       0.460497        12.5307 
 170   0.0000       0.475908        12.9501 
 171   0.0000       0.478926        13.0322 
 172   0.0000       0.494556        13.4576 
 173   0.0000       0.499478        13.5915 
 174   0.0000       0.504374        13.7247 
 175   0.0000       0.514016        13.9871 
 176   0.0000       0.523452        14.2438 
 177   0.0000       0.529491        14.4082 
 178   0.0000       0.533347        14.5131 
 179   0.0000       0.537663        14.6305 
 180   0.0000       0.547943        14.9103 
 181   0.0000       0.552399        15.0316 
 182   0.0000       0.554919        15.1001 
 183   0.0000       0.559628        15.2283 
 184   0.0000       0.569343        15.4926 
 185   0.0000       0.571701        15.5568 
 186   0.0000       0.579557        15.7706 
 187   0.0000       0.589780        16.0487 
 188   0.0000       0.592487        16.1224 
 189   0.0000       0.598863        16.2959 
 190   0.0000       0.600370        16.3369 
 191   0.0000       0.601939        16.3796 
 192   0.0000       0.618331        16.8256 
 193   0.0000       0.620402        16.8820 
 194   0.0000       0.636774        17.3275 
 195   0.0000       0.639112        17.3911 
 196   0.0000       0.641289        17.4504 
 197   0.0000       0.653437        17.7809 
 198   0.0000       0.657785        17.8992 
 199   0.0000       0.659020        17.9328 
 200   0.0000       0.689944        18.7743 
 201   0.0000       0.693745        18.8778 
 202   0.0000       0.700633        19.0652 
 203   0.0000       0.712858        19.3978 
 204   0.0000       0.726360        19.7652 
 205   0.0000       0.736063        20.0293 
 206   0.0000       0.744390        20.2559 
 207   0.0000       0.759940        20.6790 
 208   0.0000       0.773509        21.0483 
 209   0.0000       0.776893        21.1403 
 210   0.0000       0.808267        21.9941 
 211   0.0000       0.812672        22.1139 
 212   0.0000       0.819975        22.3126 
 213   0.0000       0.823763        22.4157 
 214   0.0000       0.829668        22.5764 
 215   0.0000       0.841564        22.9001 
 216   0.0000       0.842901        22.9365 
 217   0.0000       0.850557        23.1448 
 218   0.0000       0.873856        23.7788 
 219   0.0000       0.878294        23.8996 
 220   0.0000       0.879160        23.9232 
 221   0.0000       0.890282        24.2258 
 222   0.0000       0.896041        24.3825 
 223   0.0000       0.902108        24.5476 
 224   0.0000       0.916923        24.9508 
 225   0.0000       0.929339        25.2886 
 226   0.0000       0.940351        25.5882 
 227   0.0000       0.944319        25.6962 
 228   0.0000       0.956747        26.0344 
 229   0.0000       0.960750        26.1433 
 230   0.0000       0.968183        26.3456 
 231   0.0000       0.969772        26.3888 
 232   0.0000       0.987110        26.8606 
 233   0.0000       0.995150        27.0794 
 234   0.0000       1.000999        27.2386 
 235   0.0000       1.015158        27.6238 
 236   0.0000       1.022720        27.8296 
 237   0.0000       1.032097        28.0848 
 238   0.0000       1.046361        28.4729 
 239   0.0000       1.048728        28.5373 
 240   0.0000       1.058664        28.8077 
 241   0.0000       1.059771        28.8378 
 242   0.0000       1.079129        29.3646 
 243   0.0000       1.085383        29.5348 
 244   0.0000       1.091052        29.6890 
 245   0.0000       1.098676        29.8965 
 246   0.0000       1.101548        29.9746 
 247   0.0000       1.116705        30.3871 
 248   0.0000       1.120288        30.4846 
 249   0.0000       1.124721        30.6052 
 250   0.0000       1.151889        31.3445 
 251   0.0000       1.152040        31.3486 
 252   0.0000       1.156250        31.4632 
 253   0.0000       1.174388        31.9567 
 254   0.0000       1.192632        32.4532 
 255   0.0000       1.196499        32.5584 
 256   0.0000       1.223967        33.3058 
 257   0.0000       1.226252        33.3680 
 258   0.0000       1.233529        33.5660 
 259   0.0000       1.263405        34.3790 
 260   0.0000       1.273994        34.6671 
 261   0.0000       1.274676        34.6857 
 262   0.0000       1.299082        35.3498 
 263   0.0000       1.307677        35.5837 
 264   0.0000       1.315378        35.7933 
 265   0.0000       1.330948        36.2169 
 266   0.0000       1.353629        36.8341 
 267   0.0000       1.354866        36.8678 
 268   0.0000       1.370476        37.2925 
 269   0.0000       1.396465        37.9998 
 270   0.0000       1.417820        38.5808 
 271   0.0000       1.423946        38.7476 
 272   0.0000       1.434795        39.0428 
 273   0.0000       1.442740        39.2589 
 274   0.0000       1.453203        39.5437 
 275   0.0000       1.459956        39.7274 
 276   0.0000       1.463463        39.8228 
 277   0.0000       1.472972        40.0816 
 278   0.0000       1.481142        40.3039 
 279   0.0000       1.484427        40.3933 
 280   0.0000       1.486313        40.4446 
 281   0.0000       1.494446        40.6659 
 282   0.0000       1.508948        41.0606 
 283   0.0000       1.513775        41.1919 
 284   0.0000       1.524577        41.4858 
 285   0.0000       1.536227        41.8029 
 286   0.0000       1.546279        42.0764 
 287   0.0000       1.565270        42.5932 
 288   0.0000       1.571934        42.7745 
 289   0.0000       1.575526        42.8722 
 290   0.0000       1.581325        43.0300 
 291   0.0000       1.589861        43.2623 
 292   0.0000       1.604377        43.6573 
 293   0.0000       1.609244        43.7897 
 294   0.0000       1.619867        44.0788 
 295   0.0000       1.628403        44.3111 
 296   0.0000       1.658425        45.1280 
 297   0.0000       1.668591        45.4047 
 298   0.0000       1.687192        45.9108 
 299   0.0000       1.688936        45.9583 
 300   0.0000       1.692255        46.0486 
 301   0.0000       1.702465        46.3264 
 302   0.0000       1.722818        46.8803 
 303   0.0000       1.729646        47.0661 
 304   0.0000       1.736493        47.2524 
 305   0.0000       1.757015        47.8108 
 306   0.0000       1.761662        47.9373 
 307   0.0000       1.770963        48.1903 
 308   0.0000       1.793038        48.7910 
 309   0.0000       1.815913        49.4135 
 310   0.0000       1.819198        49.5029 
 311   0.0000       1.828416        49.7537 
 312   0.0000       1.830386        49.8073 
 313   0.0000       1.834130        49.9092 
 314   0.0000       1.838927        50.0397 
 315   0.0000       1.856480        50.5174 
 316   0.0000       1.864265        50.7292 
 317   0.0000       1.876063        51.0503 
 318   0.0000       1.892225        51.4901 
 319   0.0000       1.914735        52.1026 
 320   0.0000       1.922100        52.3030 
 321   0.0000       1.946233        52.9597 
 322   0.0000       1.994281        54.2671 
 323   0.0000       2.007938        54.6388 
 324   0.0000       2.025508        55.1169 
 325   0.0000       2.031332        55.2754 
 326   0.0000       2.037166        55.4341 
 327   0.0000       2.047833        55.7244 
 328   0.0000       2.055369        55.9294 
 329   0.0000       2.059133        56.0319 
 330   0.0000       2.076054        56.4923 
 331   0.0000       2.089924        56.8697 
 332   0.0000       2.125350        57.8337 
 333   0.0000       2.132206        58.0203 
 334   0.0000       2.144598        58.3575 
 335   0.0000       2.158002        58.7222 
 336   0.0000       2.173966        59.1566 
 337   0.0000       2.187606        59.5278 
 338   0.0000       2.206682        60.0469 
 339   0.0000       2.238843        60.9220 
 340   0.0000       2.252840        61.3029 
 341   0.0000       2.254433        61.3462 
 342   0.0000       2.267619        61.7050 
 343   0.0000       2.281221        62.0752 
 344   0.0000       2.289029        62.2876 
 345   0.0000       2.298867        62.5554 
 346   0.0000       2.305263        62.7294 
 347   0.0000       2.323085        63.2143 
 348   0.0000       2.365381        64.3653 
 349   0.0000       2.380224        64.7692 
 350   0.0000       2.392632        65.1068 
 351   0.0000       2.394152        65.1482 
 352   0.0000       2.402655        65.3796 
 353   0.0000       2.431320        66.1596 
 354   0.0000       2.477515        67.4166 
 355   0.0000       2.500212        68.0342 
 356   0.0000       2.508296        68.2542 
 357   0.0000       2.558716        69.6262 
 358   0.0000       2.574272        70.0495 
 359   0.0000       2.586035        70.3696 
 360   0.0000       2.606161        70.9172 
 361   0.0000       2.617973        71.2387 
 362   0.0000       2.618893        71.2637 
 363   0.0000       2.640049        71.8394 
 364   0.0000       2.664301        72.4993 
 365   0.0000       2.674573        72.7788 
 366   0.0000       2.689430        73.1831 
 367   0.0000       2.695127        73.3381 
 368   0.0000       2.702376        73.5354 
 369   0.0000       2.727111        74.2085 
 370   0.0000       2.732169        74.3461 
 371   0.0000       2.747426        74.7613 
 372   0.0000       2.749503        74.8178 
 373   0.0000       2.756512        75.0085 
 374   0.0000       2.760769        75.1243 
 375   0.0000       2.777728        75.5858 
 376   0.0000       2.786353        75.8205 
 377   0.0000       2.795464        76.0685 
 378   0.0000       2.819514        76.7229 
 379   0.0000       2.825619        76.8890 
 380   0.0000       2.840443        77.2924 
 381   0.0000       2.856799        77.7374 
 382   0.0000       2.874615        78.2222 
 383   0.0000       2.875508        78.2465 
 384   0.0000       2.876862        78.2834 
 385   0.0000       2.914052        79.2954 
 386   0.0000       2.918081        79.4050 
 387   0.0000       2.941912        80.0535 
 388   0.0000       2.952950        80.3539 
 389   0.0000       2.968162        80.7678 
 390   0.0000       2.988745        81.3279 
 391   0.0000       2.997360        81.5623 
 392   0.0000       3.013742        82.0081 
 393   0.0000       3.023882        82.2840 
 394   0.0000       3.051180        83.0268 
 395   0.0000       3.067623        83.4743 
 396   0.0000       3.081816        83.8605 
 397   0.0000       3.084858        83.9432 
 398   0.0000       3.122353        84.9636 
 399   0.0000       3.129834        85.1671 
 400   0.0000       3.146986        85.6338 
 401   0.0000       3.156944        85.9048 
 402   0.0000       3.179440        86.5170 
 403   0.0000       3.201872        87.1274 
 404   0.0000       3.225247        87.7634 
 405   0.0000       3.268562        88.9421 
 406   0.0000       3.297906        89.7406 
 407   0.0000       3.315902        90.2303 
 408   0.0000       3.356729        91.3412 
 409   0.0000       3.383434        92.0679 
 410   0.0000       3.463230        94.2393 
 411   0.0000       3.483074        94.7793 
 412   0.0000       3.527268        95.9818 
 413   0.0000       3.559021        96.8459 
 414   0.0000       3.590401        97.6998 
 415   0.0000       3.606426        98.1358 
 416   0.0000       3.663594        99.6915 
 417   0.0000       3.686945       100.3269 
 418   0.0000       3.754703       102.1707 
 419   0.0000       3.786245       103.0290 
 420   0.0000       3.829522       104.2066 
 421   0.0000       3.829872       104.2161 
 422   0.0000       3.860587       105.0519 
 423   0.0000       3.873679       105.4082 
 424   0.0000       3.936217       107.1099 
 425   0.0000       3.969130       108.0055 
 426   0.0000       3.986709       108.4839 
 427   0.0000       4.070749       110.7707 
 428   0.0000       4.276075       116.3579 
 429   0.0000       4.334695       117.9530 
 430   0.0000       4.466446       121.5382 
 431   0.0000       4.525909       123.1562 
 432   0.0000       4.570042       124.3572 
 433   0.0000       4.707835       128.1067 
 434   0.0000       4.810235       130.8932 
 435   0.0000       4.941132       134.4550 
 436   0.0000       4.973967       135.3485 
 437   0.0000       5.034129       136.9856 
 438   0.0000       5.177684       140.8919 
 439   0.0000       5.358096       145.8012 
 440   0.0000       5.469951       148.8449 
 441   0.0000      23.392855       636.5519 
 442   0.0000      23.509655       639.7302 
 443   0.0000      23.526111       640.1780 
 444   0.0000      23.631346       643.0416 
 445   0.0000      23.658850       643.7900 
 446   0.0000      23.698568       644.8708 
 447   0.0000      23.726210       645.6230 
 448   0.0000      23.753709       646.3713 
 449   0.0000      23.790216       647.3647 
 450   0.0000      23.919115       650.8722 
 451   0.0000      24.244472       659.7256 
 452   0.0000      24.737073       673.1300 
 453   0.0000      35.428827       964.0674 
 454   0.0000      35.446665       964.5528 
 455   0.0000      35.502426       966.0701 
 456   0.0000      49.930141      1358.6682 
Total SCF time: 0 days 0 hours 1 min 44 sec 

Maximum memory used throughout the entire SCF-calculation: 99.9 MB

-------------------------   --------------------
FINAL SINGLE POINT ENERGY      -703.545763360572
-------------------------   --------------------


                            ***************************************
                            *     ORCA property calculations      *
                            ***************************************

                                    ---------------------
                                    Active property flags
                                    ---------------------
   (+) Dipole Moment


------------------------------------------------------------------------------
                       ORCA ELECTRIC PROPERTIES CALCULATION
------------------------------------------------------------------------------

Dipole Moment Calculation                       ... on
Quadrupole Moment Calculation                   ... off
Polarizability Calculation                      ... off
GBWName                                         ... GLASS_108188.gbw
Electron density                                ... GLASS_108188.scfp
The origin for moment calculation is the CENTER OF MASS  = (-3.210247, -0.348141  0.000000)

-------------
DIPOLE MOMENT
-------------
                                X             Y             Z
Electronic contribution:     14.66340       7.67400      -0.00000
Nuclear contribution   :    -18.40273      -5.93249       0.00000
                        -----------------------------------------
Total Dipole Moment    :     -3.73933       1.74151      -0.00000
                        -----------------------------------------
Magnitude (a.u.)       :      4.12498
Magnitude (Debye)      :     10.48487



--------------------
Rotational spectrum 
--------------------
 
Rotational constants in cm-1:     0.025036     0.013555     0.008794 
Rotational constants in MHz :   750.567197   406.362134   263.630699 

 Dipole components along the rotational axes: 
x,y,z [a.u.] :     1.272123     3.923923    -0.000000 
x,y,z [Debye]:     3.233479     9.973819    -0.000000 

 

Timings for individual modules:

Sum of individual times         ...      105.911 sec (=   1.765 min)
GTO integral calculation        ...        1.437 sec (=   0.024 min)   1.4 %
SCF iterations                  ...      104.474 sec (=   1.741 min)  98.6 %
                             ****ORCA TERMINATED NORMALLY****
TOTAL RUN TIME: 0 days 0 hours 1 minutes 46 seconds 780 msec
