
                                 *****************
                                 * O   R   C   A *
                                 *****************

                                            #,                                       
                                            ###                                      
                                            ####                                     
                                            #####                                    
                                            ######                                   
                                           ########,                                 
                                     ,,################,,,,,                         
                               ,,#################################,,                 
                          ,,##########################################,,             
                       ,#########################################, ''#####,          
                    ,#############################################,,   '####,        
                  ,##################################################,,,,####,       
                ,###########''''           ''''###############################       
              ,#####''   ,,,,##########,,,,          '''####'''          '####       
            ,##' ,,,,###########################,,,                        '##       
           ' ,,###''''                  '''############,,,                           
         ,,##''                                '''############,,,,        ,,,,,,###''
      ,#''                                            '''#######################'''  
     '                                                          ''''####''''         
             ,#######,   #######,   ,#######,      ##                                
            ,#'     '#,  ##    ##  ,#'     '#,    #''#        ######   ,####,        
            ##       ##  ##   ,#'  ##            #'  '#       #        #'  '#        
            ##       ##  #######   ##           ,######,      #####,   #    #        
            '#,     ,#'  ##    ##  '#,     ,#' ,#      #,         ##   #,  ,#        
             '#######'   ##     ##  '#######'  #'      '#     #####' # '####'        



                  #######################################################
                  #                        -***-                        #
                  #          Department of theory and spectroscopy      #
                  #    Directorship and core code : Frank Neese         #
                  #        Max Planck Institute fuer Kohlenforschung    #
                  #                Kaiser Wilhelm Platz 1               #
                  #                 D-45470 Muelheim/Ruhr               #
                  #                      Germany                        #
                  #                                                     #
                  #                  All rights reserved                #
                  #                        -***-                        #
                  #######################################################


                         Program Version 5.0.3 -  RELEASE  -


 With contributions from (in alphabetic order):
   Daniel Aravena         : Magnetic Suceptibility
   Michael Atanasov       : Ab Initio Ligand Field Theory (pilot matlab implementation)
   Alexander A. Auer      : GIAO ZORA, VPT2 properties, NMR spectrum
   Ute Becker             : Parallelization
   Giovanni Bistoni       : ED, misc. LED, open-shell LED, HFLD
   Martin Brehm           : Molecular dynamics
   Dmytro Bykov           : SCF Hessian
   Vijay G. Chilkuri      : MRCI spin determinant printing, contributions to CSF-ICE
   Dipayan Datta          : RHF DLPNO-CCSD density
   Achintya Kumar Dutta   : EOM-CC, STEOM-CC
   Dmitry Ganyushin       : Spin-Orbit,Spin-Spin,Magnetic field MRCI
   Miquel Garcia          : C-PCM and meta-GGA Hessian, CC/C-PCM, Gaussian charge scheme
   Yang Guo               : DLPNO-NEVPT2, F12-NEVPT2, CIM, IAO-localization
   Andreas Hansen         : Spin unrestricted coupled pair/coupled cluster methods
   Benjamin Helmich-Paris : MC-RPA, TRAH-SCF, COSX integrals
   Lee Huntington         : MR-EOM, pCC
   Robert Izsak           : Overlap fitted RIJCOSX, COSX-SCS-MP3, EOM
   Marcus Kettner         : VPT2
   Christian Kollmar      : KDIIS, OOCD, Brueckner-CCSD(T), CCSD density, CASPT2, CASPT2-K
   Simone Kossmann        : Meta GGA functionals, TD-DFT gradient, OOMP2, MP2 Hessian
   Martin Krupicka        : Initial AUTO-CI
   Lucas Lang             : DCDCAS
   Marvin Lechner         : AUTO-CI (C++ implementation), FIC-MRCC
   Dagmar Lenk            : GEPOL surface, SMD
   Dimitrios Liakos       : Extrapolation schemes; Compound Job, initial MDCI parallelization
   Dimitrios Manganas     : Further ROCIS development; embedding schemes
   Dimitrios Pantazis     : SARC Basis sets
   Anastasios Papadopoulos: AUTO-CI, single reference methods and gradients
   Taras Petrenko         : DFT Hessian,TD-DFT gradient, ASA, ECA, R-Raman, ABS, FL, XAS/XES, NRVS
   Peter Pinski           : DLPNO-MP2, DLPNO-MP2 Gradient
   Christoph Reimann      : Effective Core Potentials
   Marius Retegan         : Local ZFS, SOC
   Christoph Riplinger    : Optimizer, TS searches, QM/MM, DLPNO-CCSD(T), (RO)-DLPNO pert. Triples
   Tobias Risthaus        : Range-separated hybrids, TD-DFT gradient, RPA, STAB
   Michael Roemelt        : Original ROCIS implementation
   Masaaki Saitow         : Open-shell DLPNO-CCSD energy and density
   Barbara Sandhoefer     : DKH picture change effects
   Avijit Sen             : IP-ROCIS
   Kantharuban Sivalingam : CASSCF convergence, NEVPT2, FIC-MRCI
   Bernardo de Souza      : ESD, SOC TD-DFT
   Georgi Stoychev        : AutoAux, RI-MP2 NMR, DLPNO-MP2 response
   Willem Van den Heuvel  : Paramagnetic NMR
   Boris Wezisla          : Elementary symmetry handling
   Frank Wennmohs         : Technical directorship


 We gratefully acknowledge several colleagues who have allowed us to
 interface, adapt or use parts of their codes:
   Stefan Grimme, W. Hujo, H. Kruse, P. Pracht,  : VdW corrections, initial TS optimization,
                  C. Bannwarth, S. Ehlert          DFT functionals, gCP, sTDA/sTD-DF
   Ed Valeev, F. Pavosevic, A. Kumar             : LibInt (2-el integral package), F12 methods
   Garnet Chan, S. Sharma, J. Yang, R. Olivares  : DMRG
   Ulf Ekstrom                                   : XCFun DFT Library
   Mihaly Kallay                                 : mrcc  (arbitrary order and MRCC methods)
   Jiri Pittner, Ondrej Demel                    : Mk-CCSD
   Frank Weinhold                                : gennbo (NPA and NBO analysis)
   Christopher J. Cramer and Donald G. Truhlar   : smd solvation model
   Lars Goerigk                                  : TD-DFT with DH, B97 family of functionals
   V. Asgeirsson, H. Jonsson                     : NEB implementation
   FAccTs GmbH                                   : IRC, NEB, NEB-TS, DLPNO-Multilevel, CI-OPT
                                                   MM, QMMM, 2- and 3-layer-ONIOM, Crystal-QMMM,
                                                   LR-CPCM, SF, NACMEs, symmetry and pop. for TD-DFT,
                                                   nearIR, NL-DFT gradient (VV10), updates on ESD,
                                                   ML-optimized integration grids
   S Lehtola, MJT Oliveira, MAL Marques          : LibXC Library
   Liviu Ungur et al                             : ANISO software


 Your calculation uses the libint2 library for the computation of 2-el integrals
 For citations please refer to: http://libint.valeyev.net

 Your ORCA version has been built with support for libXC version: 5.1.0
 For citations please refer to: https://tddft.org/programs/libxc/

 This ORCA versions uses:
   CBLAS   interface :  Fast vector & matrix operations
   LAPACKE interface :  Fast linear algebra routines
   SCALAPACK package :  Parallel linear algebra routines
   Shared memory     :  Shared parallel matrices
   BLAS/LAPACK       :  OpenBLAS 0.3.15  USE64BITINT DYNAMIC_ARCH NO_AFFINITY SkylakeX SINGLE_THREADED
        Core in use  :  SkylakeX
   Copyright (c) 2011-2014, The OpenBLAS Project




***************************************
The coordinates will be read from file: GLASS_105239.xyz
***************************************


================================================================================

----- Orbital basis set information -----
Your calculation utilizes the basis: 6-311++G(d,p)
   H, Li - Ne  : R. Krishnan, J. S. Binkley, R. Seeger and J. A. Pople, J. Chem. Phys. 72, 650 (1980).
   Na - Ar     : A. D. McLean and G. S. Chandler J. Chem. Phys. 72, 5639, (1980).
   K  - Ca     : J.-P. Blaudeau, M. P. McGrath, L. A. Curtiss and L. Radom, J. Chem. Phys. 107, 5016 (1997).
   Ga - Kr     : L. A. Curtiss, M. P. McGrath, J.-P. Blandeau, N. E. Davis, R. C. Binning and L. Radom, J. Chem. Phys. 103, 6104 (1995).
   Pol./Diff.
   H, Li - Cl  : T. Clark, J. Chandrasekhar and P. v. R. Schleyer, J. Comp. Chem. 4, 294 (1983).
   H - Ne      : M. J. Frisch, J. A. Pople and J. S. Binkley, J. Chem. Phys. 80, 3265 (1984).

----- AuxJ basis set information -----
Your calculation utilizes the auxiliary basis: def2/J
   F. Weigend, Phys. Chem. Chem. Phys. 8, 1057 (2006).

================================================================================
                                        WARNINGS
                       Please study these warnings very carefully!
================================================================================


INFO   : the flag for use of the SHARK integral package has been found!

================================================================================
                                       INPUT FILE
================================================================================
NAME = GLASS_105239.inp
|  1> !MiniPrint
|  2> !B3LYP 6-311++G(d,p) extremescf CPCM(water)
|  3> %pal nprocs 30
|  4> end
|  5> 
|  6> # Coordinate type     Charge  Multiplicity
|  7> * xyzfile 0 1 GLASS_105239.xyz
|  8> 
|  9>                          ****END OF INPUT****
================================================================================

                       ****************************
                       * Single Point Calculation *
                       ****************************

---------------------------------
CARTESIAN COORDINATES (ANGSTROEM)
---------------------------------
  C      3.593200   -5.388900    0.000000
  C      4.963500   -5.999000    0.000000
  N      5.967200   -4.884300    0.000000
  C      5.217200   -3.585200    0.000000
  C      3.750000   -3.897100    0.000000
  N      2.250000   -3.897100    0.000000
  S      1.500000   -2.598100    0.000000
  O      0.201000   -3.348100    0.000000
  O      2.799000   -1.848100    0.000000
  C      0.750000   -1.299000    0.000000
  C      1.500000   -0.000000    0.000000
  C      0.750000    1.299000    0.000000
  C     -0.750000    1.299000    0.000000
  C     -1.500000    0.000000    0.000000
  C     -0.750000   -1.299000    0.000000
  F     -1.500000    2.598100    0.000000
  C      7.459000   -5.041100    0.000000
  C      8.950800   -5.197900    0.000000
  O     10.442600   -5.354700    0.000000
  C     11.052700   -6.725000    0.000000
  C     10.171000   -7.938500    0.000000
  C     10.781100   -9.308800    0.000000
  C     12.272900   -9.465600    0.000000
  C     13.154600   -8.252100    0.000000
  C     12.544500   -6.881800    0.000000
  C     13.426100   -5.668200    0.000000
  C     14.917900   -5.825000    0.000000
  C     15.799600   -4.611500    0.000000
  C     15.189500   -3.241200    0.000000
  C     13.697700   -3.084400    0.000000
  C     12.816000   -4.297900    0.000000
  H      3.129700   -6.815500    0.000000
  H      2.382800   -5.283000    0.000000
  H      6.177100   -6.880700    0.000000
  H      4.213500   -7.298000    0.000000
  H      4.753700   -2.158700    0.000000
  H      6.587500   -2.975100    0.000000
  H      3.593200   -2.405300    0.000000
  H      1.518800   -4.867400    0.000000
  H      3.000000   -0.000000    0.000000
  H      1.500000    2.598100    0.000000
  H     -3.000000    0.000000    0.000000
  H     -1.500000   -2.598100    0.000000
  H      7.615800   -3.549300    0.000000
  H      7.302200   -6.532900    0.000000
  H      9.107600   -3.706100    0.000000
  H      8.794000   -6.689700    0.000000
  H      8.679200   -7.781700    0.000000
  H      9.899400  -10.522400    0.000000
  H     12.883000  -10.835900    0.000000
  H     14.646300   -8.408900    0.000000
  H     15.528000   -7.195400    0.000000
  H     17.291400   -4.768300    0.000000
  H     16.071200   -2.027700    0.000000
  H     13.087600   -1.714100    0.000000
  H     11.324200   -4.141100    0.000000

----------------------------
CARTESIAN COORDINATES (A.U.)
----------------------------
  NO LB      ZA    FRAG     MASS         X           Y           Z
   0 C     6.0000    0    12.011    6.790164  -10.183545    0.000000
   1 C     6.0000    0    12.011    9.379656  -11.336467    0.000000
   2 N     7.0000    0    14.007   11.276374   -9.229989    0.000000
   3 C     6.0000    0    12.011    9.859079   -6.775046    0.000000
   4 C     6.0000    0    12.011    7.086473   -7.364452    0.000000
   5 N     7.0000    0    14.007    4.251884   -7.364452    0.000000
   6 S    16.0000    0    32.060    2.834589   -4.909697    0.000000
   7 O     8.0000    0    15.999    0.379835   -6.326992    0.000000
   8 O     8.0000    0    15.999    5.289343   -3.492403    0.000000
   9 C     6.0000    0    12.011    1.417295   -2.454754    0.000000
  10 C     6.0000    0    12.011    2.834589   -0.000000    0.000000
  11 C     6.0000    0    12.011    1.417295    2.454754    0.000000
  12 C     6.0000    0    12.011   -1.417295    2.454754    0.000000
  13 C     6.0000    0    12.011   -2.834589    0.000000    0.000000
  14 C     6.0000    0    12.011   -1.417295   -2.454754    0.000000
  15 F     9.0000    0    18.998   -2.834589    4.909697    0.000000
  16 C     6.0000    0    12.011   14.095467   -9.526298    0.000000
  17 C     6.0000    0    12.011   16.914561   -9.822607    0.000000
  18 O     8.0000    0    15.999   19.733654  -10.118917    0.000000
  19 C     6.0000    0    12.011   20.886576  -12.708408    0.000000
  20 C     6.0000    0    12.011   19.220405  -15.001591    0.000000
  21 C     6.0000    0    12.011   20.373326  -17.591083    0.000000
  22 C     6.0000    0    12.011   23.192420  -17.887392    0.000000
  23 C     6.0000    0    12.011   24.858591  -15.594209    0.000000
  24 C     6.0000    0    12.011   23.705669  -13.004717    0.000000
  25 C     6.0000    0    12.011   25.371652  -10.711346    0.000000
  26 C     6.0000    0    12.011   28.190745  -11.007655    0.000000
  27 C     6.0000    0    12.011   29.856917   -8.714472    0.000000
  28 C     6.0000    0    12.011   28.703995   -6.124980    0.000000
  29 C     6.0000    0    12.011   25.884902   -5.828671    0.000000
  30 C     6.0000    0    12.011   24.218730   -8.121854    0.000000
  31 H     1.0000    0     1.008    5.914276  -12.879428    0.000000
  32 H     1.0000    0     1.008    4.502839   -9.983423    0.000000
  33 H     1.0000    0     1.008   11.673027  -13.002639    0.000000
  34 H     1.0000    0     1.008    7.962361  -13.791221    0.000000
  35 H     1.0000    0     1.008    8.983191   -4.079352    0.000000
  36 H     1.0000    0     1.008   12.448571   -5.622124    0.000000
  37 H     1.0000    0     1.008    6.790164   -4.545358    0.000000
  38 H     1.0000    0     1.008    2.870116   -9.198053    0.000000
  39 H     1.0000    0     1.008    5.669178   -0.000000    0.000000
  40 H     1.0000    0     1.008    2.834589    4.909697    0.000000
  41 H     1.0000    0     1.008   -5.669178    0.000000    0.000000
  42 H     1.0000    0     1.008   -2.834589   -4.909697    0.000000
  43 H     1.0000    0     1.008   14.391776   -6.707205    0.000000
  44 H     1.0000    0     1.008   13.799158  -12.345392    0.000000
  45 H     1.0000    0     1.008   17.210870   -7.003514    0.000000
  46 H     1.0000    0     1.008   16.618252  -12.641701    0.000000
  47 H     1.0000    0     1.008   16.401311  -14.705282    0.000000
  48 H     1.0000    0     1.008   18.707155  -19.884454    0.000000
  49 H     1.0000    0     1.008   24.345342  -20.476883    0.000000
  50 H     1.0000    0     1.008   27.677496  -15.890518    0.000000
  51 H     1.0000    0     1.008   29.343667  -13.597335    0.000000
  52 H     1.0000    0     1.008   32.676010   -9.010781    0.000000
  53 H     1.0000    0     1.008   30.370167   -3.831798    0.000000
  54 H     1.0000    0     1.008   24.731980   -3.239180    0.000000
  55 H     1.0000    0     1.008   21.399637   -7.825545    0.000000



           ************************************************************
           *        Program running with 30 parallel MPI-processes    *
           *              working on a common directory               *
           ************************************************************
------------------------------------------------------------------------------
                   ___                                                        
                  /   \      - P O W E R E D   B Y -                         
                 /     \                                                     
                 |  |  |   _    _      __       _____    __    __             
                 |  |  |  | |  | |    /  \     |  _  \  |  |  /  |          
                  \  \/   | |  | |   /    \    | | | |  |  | /  /          
                 / \  \   | |__| |  /  /\  \   | |_| |  |  |/  /          
                |  |  |   |  __  | /  /__\  \  |    /   |      \           
                |  |  |   | |  | | |   __   |  |    \   |  |\   \          
                \     /   | |  | | |  |  |  |  | |\  \  |  | \   \       
                 \___/    |_|  |_| |__|  |__|  |_| \__\ |__|  \__/        
                                                                              
                      - O R C A' S   B I G   F R I E N D -                    
                                      &                                       
                       - I N T E G R A L  F E E D E R -                       
                                                                              
 v1 FN, 2020, v2 2021                                                         
------------------------------------------------------------------------------


Reading SHARK input file GLASS_105239.SHARKINP.tmp ... ok
----------------------
SHARK INTEGRAL PACKAGE
----------------------

Number of atoms                             ...     56
Number of basis functions                   ...    865
Number of shells                            ...    439
Maximum angular momentum                    ...      2
Integral batch strategy                     ... SHARK/LIBINT Hybrid
RI-J (if used) integral strategy            ... SPLIT-RIJ (Revised 2003 algorithm where possible)
Printlevel                                  ...      1
Contraction scheme used                     ... SEGMENTED contraction
Coulomb Range Separation                    ... NOT USED
Exchange Range Separation                   ... NOT USED
Finite Nucleus Model                        ... NOT USED
Auxiliary Coulomb fitting basis             ... AVAILABLE
   # of basis functions in Aux-J            ...   1796
   # of shells in Aux-J                     ...    592
   Maximum angular momentum in Aux-J        ...      4
Auxiliary J/K fitting basis                 ... NOT available
Auxiliary Correlation fitting basis         ... NOT available
Auxiliary 'external' fitting basis          ... NOT available
Integral threshold                          ...     3.000000e-16
Primitive cut-off                           ...     3.000000e-16
Primitive pair pre-selection threshold      ...     3.000000e-16

Calculating pre-screening integrals         ... done (  0.0 sec) Dimension = 439
Organizing shell pair data                  ... done (  1.0 sec)
Shell pair information
Total number of shell pairs                 ...     96580
Shell pairs after pre-screening             ...     62667
Total number of primitive shell pairs       ...    297565
Primitive shell pairs kept                  ...    128723
          la=0 lb=0:  22113 shell pairs
          la=1 lb=0:  25687 shell pairs
          la=1 lb=1:   7567 shell pairs
          la=2 lb=0:   4495 shell pairs
          la=2 lb=1:   2582 shell pairs
          la=2 lb=2:    223 shell pairs

Calculating one electron integrals          ... done (  0.1 sec)
Calculating RI/J V-Matrix + Cholesky decomp.... done (  0.2 sec)
Calculating Nuclear repulsion               ... done (  0.0 sec) ENN=   2808.020692945266 Eh

SHARK setup successfully completed in   1.8 seconds

Maximum memory used throughout the entire GTOINT-calculation: 83.2 MB


           ************************************************************
           *        Program running with 30 parallel MPI-processes    *
           *              working on a common directory               *
           ************************************************************

Diagonalization of the overlap matrix:
Smallest eigenvalue                        ... 6.881e-08
Time for diagonalization                   ...    0.162 sec
Threshold for overlap eigenvalues          ... 1.000e-08
Number of eigenvalues below threshold      ... 0
Time for construction of square roots      ...    0.105 sec
Total time needed                          ...    0.272 sec

Time for model grid setup =    0.334 sec

Loading Hartree-Fock densities                     ... done
Calculating cut-offs                               ... done
Initializing the effective Hamiltonian             ... done
Setting up the integral package (SHARK)            ... done
Starting the Coulomb interaction                   ... done (   0.3 sec)
Reading the grid                                   ... done
Mapping shells                                     ... done
Starting the XC term evaluation                    ... done (   0.2 sec)
  promolecular density results
     # of electrons  =    231.983739016
     EX              =   -202.564019404
     EC              =     -7.959335885
     EX+EC           =   -210.523355289
Transforming the Hamiltonian                       ... done (   0.1 sec)
Diagonalizing the Hamiltonian                      ... done (   0.2 sec)
Back transforming the eigenvectors                 ... done (   0.0 sec)
Now organizing SCF variables                       ... done
-------------------
DFT GRID GENERATION
-------------------

General Integration Accuracy     IntAcc      ... 4.388
Radial Grid Type                 RadialGrid  ... OptM3 with GC (2021)
Angular Grid (max. ang.)         AngularGrid ... 4 (Lebedev-302)
Angular grid pruning method      GridPruning ... 4 (adaptive)
Weight generation scheme         WeightScheme... Becke
Basis function cutoff            BFCut       ... 3.0000e-16
Integration weight cutoff        WCut        ... 1.0000e-14
Angular grids for H and He will be reduced by one unit
Partially contracted basis set               ... off
Rotationally invariant grid construction     ... off

Total number of grid points                  ...   278979
Total number of batches                      ...     4387
Average number of points per batch           ...       63
Average number of grid points per atom       ...     4982
Time for grid setup =    1.593 sec

--------------------
COSX GRID GENERATION
--------------------

GRIDX 1
-------
General Integration Accuracy     IntAcc      ... 3.816
Radial Grid Type                 RadialGrid  ... OptM3 with GC (2021)
Angular Grid (max. ang.)         AngularGrid ... 1 (Lebedev-50)
Angular grid pruning method      GridPruning ... 4 (adaptive)
Weight generation scheme         WeightScheme... Becke
Basis function cutoff            BFCut       ... 3.0000e-16
Integration weight cutoff        WCut        ... 1.0000e-14
Angular grids for H and He will be reduced by one unit
Partially contracted basis set               ... on
Rotationally invariant grid construction     ... off

Total number of grid points                  ...    34840
Total number of batches                      ...      567
Average number of points per batch           ...       61
Average number of grid points per atom       ...      622
UseSFitting                                  ... on

GRIDX 2
-------
General Integration Accuracy     IntAcc      ... 4.020
Radial Grid Type                 RadialGrid  ... OptM3 with GC (2021)
Angular Grid (max. ang.)         AngularGrid ... 2 (Lebedev-110)
Angular grid pruning method      GridPruning ... 4 (adaptive)
Weight generation scheme         WeightScheme... Becke
Basis function cutoff            BFCut       ... 3.0000e-16
Integration weight cutoff        WCut        ... 1.0000e-14
Angular grids for H and He will be reduced by one unit
Partially contracted basis set               ... on
Rotationally invariant grid construction     ... off

Total number of grid points                  ...    83297
Total number of batches                      ...     1334
Average number of points per batch           ...       62
Average number of grid points per atom       ...     1487
UseSFitting                                  ... on

GRIDX 3
-------
General Integration Accuracy     IntAcc      ... 4.338
Radial Grid Type                 RadialGrid  ... OptM3 with GC (2021)
Angular Grid (max. ang.)         AngularGrid ... 3 (Lebedev-194)
Angular grid pruning method      GridPruning ... 4 (adaptive)
Weight generation scheme         WeightScheme... Becke
Basis function cutoff            BFCut       ... 3.0000e-16
Integration weight cutoff        WCut        ... 1.0000e-14
Angular grids for H and He will be reduced by one unit
Partially contracted basis set               ... on
Rotationally invariant grid construction     ... off

Total number of grid points                  ...   184404
Total number of batches                      ...     2909
Average number of points per batch           ...       63
Average number of grid points per atom       ...     3293
UseSFitting                                  ... on

Time for X-Grid setup             =    2.245 sec


--------------------
CPCM SOLVATION MODEL
--------------------
CPCM parameters:
  Epsilon                                         ...      80.4000
  Refrac                                          ...       1.3300
  Rsolv                                           ...       1.3000
  Surface type                                    ... GAUSSIAN VDW
  Epsilon function type                           ...         CPCM
Radii:
 Radius for C  used is    3.8550 Bohr (=   2.0400 Ang.)
 Radius for N  used is    3.5149 Bohr (=   1.8600 Ang.)
 Radius for S  used is    4.0818 Bohr (=   2.1600 Ang.)
 Radius for O  used is    3.4469 Bohr (=   1.8240 Ang.)
 Radius for F  used is    3.3335 Bohr (=   1.7640 Ang.)
 Radius for H  used is    2.4944 Bohr (=   1.3200 Ang.)
Calculating surface                               ...        done! (  0.0s)
GEPOL surface points                              ...         2934
GEPOL Volume                                      ...    3667.8815
GEPOL Surface-area                                ...    1828.5605
Calculating surface distance matrix               ...        done! (  0.1s)
Performing Cholesky decomposition & store         ...        done! (  0.7s)
Overall time for CPCM initialization              ...                 0.7s
--------------
SCF ITERATIONS
--------------
ITER       Energy         Delta-E        Max-DP      RMS-DP      [F,P]     Damp
               ***  Starting incremental Fock matrix formation  ***
  0  -1759.2350279968   0.00000000000017.72760920  0.04578179  0.4087504 0.7000
  1  -1759.5463705580  -0.31134256116518.32831429  0.04365972  0.1312872 0.7000
                               ***Turning on DIIS***
  2  -1759.6520665310  -0.10569597301731.07440904  0.07224406  0.0426231 0.0000
  3  -1759.8179567512  -0.16589022018917.46627430  0.04347943  0.0559048 0.0000
  4  -1759.8639876476  -0.046030896459 7.66680408  0.01824521  0.0332588 0.0000
  5  -1759.8688484807  -0.004860833022 0.95484463  0.00353522  0.0160395 0.0000
                      *** Initiating the SOSCF procedure ***
                           *** Shutting down DIIS ***
                      *** Re-Reading the Fockian *** 
                      *** Removing any level shift *** 
ITER      Energy       Delta-E        Grad      Rot      Max-DP    RMS-DP
  6  -1759.86937964  -0.0005311554  0.000559  0.000559  0.714856  0.002010
               *** Restarting incremental Fock matrix formation ***
  7  -1759.86936057   0.0000190652  0.000531  0.008696  4.608272  0.013888
  8  -1759.86938193  -0.0000213550  0.000495  0.004147  1.805224  0.005993
  9  -1759.86940145  -0.0000195219  0.000263  0.001390  1.408978  0.004795
 10  -1759.86940494  -0.0000034940  0.000196  0.001805  0.977221  0.003113
 11  -1759.86940829  -0.0000033514  0.000142  0.001412  0.710051  0.002249
 12  -1759.86940944  -0.0000011505  0.000082  0.000763  0.361335  0.001198
 13  -1759.86941090  -0.0000014559  0.000041  0.000661  0.341497  0.001113
 14  -1759.86941113  -0.0000002326  0.000030  0.000618  0.098620  0.000332
 15  -1759.86941129  -0.0000001550  0.000023  0.000631  0.167409  0.000518
 16  -1759.86941135  -0.0000000667  0.000020  0.000445  0.077199  0.000257
 17  -1759.86941137  -0.0000000196  0.000018  0.000190  0.096841  0.000311
 18  -1759.86941141  -0.0000000321  0.000006  0.000117  0.029567  0.000099
 19  -1759.86941140   0.0000000015  0.000009  0.000054  0.035908  0.000114
 20  -1759.86941141  -0.0000000101  0.000002  0.000033  0.005516  0.000020
 21  -1759.86941141   0.0000000005  0.000002  0.000012  0.007820  0.000025
 22  -1759.86941141  -0.0000000009  0.000001  0.000010  0.001498  0.000007
 23  -1759.86941141   0.0000000000  0.000002  0.000003  0.001894  0.000007
 24  -1759.86941141  -0.0000000002  0.000000  0.000002  0.000508  0.000002
 25  -1759.86941141  -0.0000000000  0.000001  0.000001  0.000380  0.000002
 26  -1759.86941141   0.0000000001  0.000000  0.000000  0.000162  0.000001
               *** Restarting incremental Fock matrix formation ***
 27  -1759.86941141  -0.0000000000  0.000000  0.000000  0.000056  0.000000
 28  -1759.86941141  -0.0000000000  0.000000  0.000000  0.000076  0.000000
 29  -1759.86941141   0.0000000000  0.000000  0.000000  0.000047  0.000000
 30  -1759.86941141  -0.0000000001  0.000000  0.000000  0.000020  0.000000
 31  -1759.86941141   0.0000000002  0.000000  0.000000  0.000008  0.000000
 32  -1759.86941142  -0.0000000003  0.000000  0.000000  0.000020  0.000000
 33  -1759.86941141   0.0000000001  0.000000  0.000000  0.000017  0.000000
 34  -1759.86941141   0.0000000001  0.000000  0.000000  0.000007  0.000000
 35  -1759.86941141   0.0000000001  0.000000  0.000000  0.000002  0.000000
 36  -1759.86941141  -0.0000000001  0.000000  0.000000  0.000001  0.000000
 37  -1759.86941141   0.0000000001  0.000000  0.000000  0.000000  0.000000
                           ***RMSP convergence achieved***
                           ***MAXP convergence achieved***
                       ***Gradient convergence achieved***
                    ***Orbital Rotation convergence achieved***
 38  -1759.86941141  -0.0000000001  0.000000  0.000000  0.000000  0.000000
                          ***Energy convergence achieved***
              ***Rediagonalizing the Fockian in SOSCF/NRSCF***

               *****************************************************
               *                     SUCCESS                       *
               *           SCF CONVERGED AFTER  39 CYCLES          *
               *****************************************************

Old exchange energy                            =    -40.519634961 Eh
New exchange energy                            =    -40.519532277 Eh
Exchange energy change after final integration =      0.000102684 Eh
Total energy after final integration           =  -1759.869308731 Eh
Final COS-X integration done in                =    19.624 sec
Total Energy       :        -1759.86930873 Eh          -47888.47849 eV
  Last Energy change         ...    0.0000e+00  Tolerance :   1.0000e-14
  Last MAX-Density change    ...    2.8422e-14  Tolerance :   1.0000e-14
             **** THE GBW FILE WAS UPDATED (GLASS_105239.gbw) ****
             **** DENSITY GLASS_105239.scfp WAS UPDATED ****
             **** ENERGY FILE WAS UPDATED (GLASS_105239.en.tmp) ****
             **** THE GBW FILE WAS UPDATED (GLASS_105239.gbw) ****
             **** DENSITY GLASS_105239.scfp WAS UPDATED ****
----------------
ORBITAL ENERGIES
----------------

  NO   OCC          E(Eh)            E(eV) 
   0   2.0000     -89.085660     -2424.1441 
   1   2.0000     -24.710847      -672.4163 
   2   2.0000     -19.197550      -522.3919 
   3   2.0000     -19.174028      -521.7518 
   4   2.0000     -19.107470      -519.9407 
   5   2.0000     -14.437160      -392.8551 
   6   2.0000     -14.408650      -392.0793 
   7   2.0000     -10.337515      -281.2981 
   8   2.0000     -10.297434      -280.2074 
   9   2.0000     -10.279414      -279.7171 
  10   2.0000     -10.279034      -279.7067 
  11   2.0000     -10.271350      -279.4976 
  12   2.0000     -10.270448      -279.4731 
  13   2.0000     -10.267199      -279.3847 
  14   2.0000     -10.266421      -279.3635 
  15   2.0000     -10.260902      -279.2133 
  16   2.0000     -10.258745      -279.1546 
  17   2.0000     -10.247733      -278.8550 
  18   2.0000     -10.245809      -278.8026 
  19   2.0000     -10.243841      -278.7491 
  20   2.0000     -10.241832      -278.6944 
  21   2.0000     -10.241541      -278.6865 
  22   2.0000     -10.239918      -278.6423 
  23   2.0000     -10.238609      -278.6067 
  24   2.0000     -10.236338      -278.5449 
  25   2.0000     -10.234125      -278.4847 
  26   2.0000     -10.234096      -278.4839 
  27   2.0000     -10.232778      -278.4481 
  28   2.0000     -10.225208      -278.2420 
  29   2.0000     -10.211884      -277.8795 
  30   2.0000     -10.204892      -277.6892 
  31   2.0000      -8.157250      -221.9701 
  32   2.0000      -6.120952      -166.5596 
  33   2.0000      -6.119391      -166.5171 
  34   2.0000      -6.115559      -166.4128 
  35   2.0000      -1.231567       -33.5126 
  36   2.0000      -1.205156       -32.7940 
  37   2.0000      -1.097840       -29.8737 
  38   2.0000      -1.035625       -28.1808 
  39   2.0000      -1.008078       -27.4312 
  40   2.0000      -0.957178       -26.0461 
  41   2.0000      -0.879954       -23.9448 
  42   2.0000      -0.843956       -22.9652 
  43   2.0000      -0.838678       -22.8216 
  44   2.0000      -0.817786       -22.2531 
  45   2.0000      -0.807754       -21.9801 
  46   2.0000      -0.759957       -20.6795 
  47   2.0000      -0.755915       -20.5695 
  48   2.0000      -0.751351       -20.4453 
  49   2.0000      -0.743241       -20.2246 
  50   2.0000      -0.726606       -19.7720 
  51   2.0000      -0.712229       -19.3807 
  52   2.0000      -0.707015       -19.2389 
  53   2.0000      -0.697775       -18.9874 
  54   2.0000      -0.692323       -18.8391 
  55   2.0000      -0.661378       -17.9970 
  56   2.0000      -0.639291       -17.3960 
  57   2.0000      -0.611859       -16.6495 
  58   2.0000      -0.611116       -16.6293 
  59   2.0000      -0.604564       -16.4510 
  60   2.0000      -0.576870       -15.6974 
  61   2.0000      -0.570401       -15.5214 
  62   2.0000      -0.567906       -15.4535 
  63   2.0000      -0.562587       -15.3088 
  64   2.0000      -0.550681       -14.9848 
  65   2.0000      -0.549066       -14.9408 
  66   2.0000      -0.528921       -14.3927 
  67   2.0000      -0.518030       -14.0963 
  68   2.0000      -0.512980       -13.9589 
  69   2.0000      -0.507756       -13.8168 
  70   2.0000      -0.497688       -13.5428 
  71   2.0000      -0.476494       -12.9661 
  72   2.0000      -0.467367       -12.7177 
  73   2.0000      -0.462006       -12.5718 
  74   2.0000      -0.455011       -12.3815 
  75   2.0000      -0.448092       -12.1932 
  76   2.0000      -0.441950       -12.0261 
  77   2.0000      -0.431652       -11.7459 
  78   2.0000      -0.425753       -11.5853 
  79   2.0000      -0.420862       -11.4522 
  80   2.0000      -0.415588       -11.3087 
  81   2.0000      -0.415372       -11.3028 
  82   2.0000      -0.413840       -11.2612 
  83   2.0000      -0.413010       -11.2386 
  84   2.0000      -0.408530       -11.1167 
  85   2.0000      -0.404639       -11.0108 
  86   2.0000      -0.397316       -10.8115 
  87   2.0000      -0.394906       -10.7459 
  88   2.0000      -0.390436       -10.6243 
  89   2.0000      -0.383009       -10.4222 
  90   2.0000      -0.369480       -10.0541 
  91   2.0000      -0.366780        -9.9806 
  92   2.0000      -0.363113        -9.8808 
  93   2.0000      -0.356320        -9.6960 
  94   2.0000      -0.347458        -9.4548 
  95   2.0000      -0.346615        -9.4319 
  96   2.0000      -0.342313        -9.3148 
  97   2.0000      -0.338660        -9.2154 
  98   2.0000      -0.330657        -8.9976 
  99   2.0000      -0.329498        -8.9661 
 100   2.0000      -0.304704        -8.2914 
 101   2.0000      -0.293731        -7.9928 
 102   2.0000      -0.290536        -7.9059 
 103   2.0000      -0.288157        -7.8412 
 104   2.0000      -0.285558        -7.7704 
 105   2.0000      -0.279095        -7.5946 
 106   2.0000      -0.277928        -7.5628 
 107   2.0000      -0.272537        -7.4161 
 108   2.0000      -0.259954        -7.0737 
 109   2.0000      -0.254140        -6.9155 
 110   2.0000      -0.249345        -6.7850 
 111   2.0000      -0.246944        -6.7197 
 112   2.0000      -0.229492        -6.2448 
 113   2.0000      -0.216569        -5.8931 
 114   2.0000      -0.213983        -5.8228 
 115   2.0000      -0.174523        -4.7490 
 116   0.0000      -0.155443        -4.2298 
 117   0.0000      -0.137310        -3.7364 
 118   0.0000      -0.081191        -2.2093 
 119   0.0000      -0.071041        -1.9331 
 120   0.0000      -0.064301        -1.7497 
 121   0.0000      -0.063376        -1.7246 
 122   0.0000      -0.062116        -1.6903 
 123   0.0000      -0.055592        -1.5127 
 124   0.0000      -0.052797        -1.4367 
 125   0.0000      -0.045098        -1.2272 
 126   0.0000      -0.045012        -1.2248 
 127   0.0000      -0.033577        -0.9137 
 128   0.0000      -0.032620        -0.8876 
 129   0.0000      -0.028799        -0.7837 
 130   0.0000      -0.027977        -0.7613 
 131   0.0000      -0.021400        -0.5823 
 132   0.0000      -0.016993        -0.4624 
 133   0.0000      -0.008207        -0.2233 
 134   0.0000      -0.006806        -0.1852 
 135   0.0000      -0.005647        -0.1537 
 136   0.0000      -0.004404        -0.1198 
 137   0.0000       0.000308         0.0084 
 138   0.0000       0.003938         0.1072 
 139   0.0000       0.006766         0.1841 
 140   0.0000       0.010487         0.2854 
 141   0.0000       0.012253         0.3334 
 142   0.0000       0.013717         0.3733 
 143   0.0000       0.014950         0.4068 
 144   0.0000       0.017574         0.4782 
 145   0.0000       0.025027         0.6810 
 146   0.0000       0.030708         0.8356 
 147   0.0000       0.037263         1.0140 
 148   0.0000       0.038888         1.0582 
 149   0.0000       0.039129         1.0648 
 150   0.0000       0.043067         1.1719 
 151   0.0000       0.045818         1.2468 
 152   0.0000       0.047560         1.2942 
 153   0.0000       0.053793         1.4638 
 154   0.0000       0.055947         1.5224 
 155   0.0000       0.057707         1.5703 
 156   0.0000       0.059843         1.6284 
 157   0.0000       0.060819         1.6550 
 158   0.0000       0.062051         1.6885 
 159   0.0000       0.063808         1.7363 
 160   0.0000       0.065821         1.7911 
 161   0.0000       0.066899         1.8204 
 162   0.0000       0.067593         1.8393 
 163   0.0000       0.070348         1.9143 
 164   0.0000       0.071693         1.9509 
 165   0.0000       0.072796         1.9809 
 166   0.0000       0.075155         2.0451 
 167   0.0000       0.076948         2.0939 
 168   0.0000       0.078211         2.1282 
 169   0.0000       0.079270         2.1570 
 170   0.0000       0.083308         2.2669 
 171   0.0000       0.084781         2.3070 
 172   0.0000       0.085855         2.3362 
 173   0.0000       0.087233         2.3737 
 174   0.0000       0.088598         2.4109 
 175   0.0000       0.088712         2.4140 
 176   0.0000       0.091082         2.4785 
 177   0.0000       0.094164         2.5623 
 178   0.0000       0.096102         2.6151 
 179   0.0000       0.100230         2.7274 
 180   0.0000       0.100476         2.7341 
 181   0.0000       0.106450         2.8967 
 182   0.0000       0.107409         2.9227 
 183   0.0000       0.109851         2.9892 
 184   0.0000       0.112821         3.0700 
 185   0.0000       0.116381         3.1669 
 186   0.0000       0.116616         3.1733 
 187   0.0000       0.117455         3.1961 
 188   0.0000       0.120257         3.2724 
 189   0.0000       0.122821         3.3421 
 190   0.0000       0.124399         3.3851 
 191   0.0000       0.126387         3.4392 
 192   0.0000       0.126441         3.4406 
 193   0.0000       0.127737         3.4759 
 194   0.0000       0.132138         3.5956 
 195   0.0000       0.132811         3.6140 
 196   0.0000       0.134468         3.6590 
 197   0.0000       0.135522         3.6877 
 198   0.0000       0.138824         3.7776 
 199   0.0000       0.142225         3.8701 
 200   0.0000       0.145281         3.9533 
 201   0.0000       0.146387         3.9834 
 202   0.0000       0.148080         4.0295 
 203   0.0000       0.151631         4.1261 
 204   0.0000       0.154606         4.2070 
 205   0.0000       0.154675         4.2089 
 206   0.0000       0.158784         4.3207 
 207   0.0000       0.159756         4.3472 
 208   0.0000       0.162341         4.4175 
 209   0.0000       0.162492         4.4216 
 210   0.0000       0.166998         4.5443 
 211   0.0000       0.167731         4.5642 
 212   0.0000       0.169846         4.6217 
 213   0.0000       0.172242         4.6869 
 214   0.0000       0.173704         4.7267 
 215   0.0000       0.175689         4.7807 
 216   0.0000       0.177959         4.8425 
 217   0.0000       0.180885         4.9221 
 218   0.0000       0.182011         4.9528 
 219   0.0000       0.183051         4.9811 
 220   0.0000       0.187370         5.0986 
 221   0.0000       0.189034         5.1439 
 222   0.0000       0.190727         5.1900 
 223   0.0000       0.193089         5.2542 
 224   0.0000       0.194038         5.2800 
 225   0.0000       0.195927         5.3314 
 226   0.0000       0.197325         5.3695 
 227   0.0000       0.199363         5.4249 
 228   0.0000       0.202778         5.5179 
 229   0.0000       0.204388         5.5617 
 230   0.0000       0.206330         5.6145 
 231   0.0000       0.207793         5.6543 
 232   0.0000       0.208885         5.6840 
 233   0.0000       0.211282         5.7493 
 234   0.0000       0.215932         5.8758 
 235   0.0000       0.219306         5.9676 
 236   0.0000       0.221225         6.0198 
 237   0.0000       0.221530         6.0281 
 238   0.0000       0.222645         6.0585 
 239   0.0000       0.224707         6.1146 
 240   0.0000       0.225607         6.1391 
 241   0.0000       0.227815         6.1992 
 242   0.0000       0.228868         6.2278 
 243   0.0000       0.229490         6.2447 
 244   0.0000       0.230390         6.2692 
 245   0.0000       0.231541         6.3005 
 246   0.0000       0.234717         6.3870 
 247   0.0000       0.237744         6.4693 
 248   0.0000       0.241554         6.5730 
 249   0.0000       0.243599         6.6287 
 250   0.0000       0.247789         6.7427 
 251   0.0000       0.250931         6.8282 
 252   0.0000       0.255725         6.9586 
 253   0.0000       0.255849         6.9620 
 254   0.0000       0.258344         7.0299 
 255   0.0000       0.259494         7.0612 
 256   0.0000       0.260139         7.0787 
 257   0.0000       0.262048         7.1307 
 258   0.0000       0.263608         7.1731 
 259   0.0000       0.265729         7.2309 
 260   0.0000       0.270568         7.3625 
 261   0.0000       0.272263         7.4087 
 262   0.0000       0.274950         7.4818 
 263   0.0000       0.277090         7.5400 
 264   0.0000       0.277372         7.5477 
 265   0.0000       0.277549         7.5525 
 266   0.0000       0.280933         7.6446 
 267   0.0000       0.284866         7.7516 
 268   0.0000       0.287243         7.8163 
 269   0.0000       0.291573         7.9341 
 270   0.0000       0.293260         7.9800 
 271   0.0000       0.294758         8.0208 
 272   0.0000       0.298216         8.1149 
 273   0.0000       0.301305         8.1989 
 274   0.0000       0.305260         8.3066 
 275   0.0000       0.306286         8.3345 
 276   0.0000       0.307172         8.3586 
 277   0.0000       0.308308         8.3895 
 278   0.0000       0.312652         8.5077 
 279   0.0000       0.314034         8.5453 
 280   0.0000       0.316123         8.6021 
 281   0.0000       0.317519         8.6401 
 282   0.0000       0.322672         8.7804 
 283   0.0000       0.324914         8.8414 
 284   0.0000       0.329965         8.9788 
 285   0.0000       0.331150         9.0110 
 286   0.0000       0.334942         9.1142 
 287   0.0000       0.335623         9.1328 
 288   0.0000       0.337103         9.1730 
 289   0.0000       0.341911         9.3039 
 290   0.0000       0.347677         9.4608 
 291   0.0000       0.353285         9.6134 
 292   0.0000       0.354871         9.6565 
 293   0.0000       0.360647         9.8137 
 294   0.0000       0.362706         9.8697 
 295   0.0000       0.364332         9.9140 
 296   0.0000       0.369254        10.0479 
 297   0.0000       0.371798        10.1171 
 298   0.0000       0.372870        10.1463 
 299   0.0000       0.378389        10.2965 
 300   0.0000       0.381972        10.3940 
 301   0.0000       0.387529        10.5452 
 302   0.0000       0.390879        10.6364 
 303   0.0000       0.394642        10.7388 
 304   0.0000       0.398935        10.8556 
 305   0.0000       0.401780        10.9330 
 306   0.0000       0.405848        11.0437 
 307   0.0000       0.406744        11.0681 
 308   0.0000       0.409622        11.1464 
 309   0.0000       0.413589        11.2543 
 310   0.0000       0.420239        11.4353 
 311   0.0000       0.424489        11.5509 
 312   0.0000       0.431821        11.7504 
 313   0.0000       0.434592        11.8258 
 314   0.0000       0.438644        11.9361 
 315   0.0000       0.443331        12.0636 
 316   0.0000       0.447394        12.1742 
 317   0.0000       0.448943        12.2164 
 318   0.0000       0.452499        12.3131 
 319   0.0000       0.459782        12.5113 
 320   0.0000       0.464496        12.6396 
 321   0.0000       0.472073        12.8458 
 322   0.0000       0.475045        12.9266 
 323   0.0000       0.478347        13.0165 
 324   0.0000       0.481457        13.1011 
 325   0.0000       0.484277        13.1778 
 326   0.0000       0.487086        13.2543 
 327   0.0000       0.493673        13.4335 
 328   0.0000       0.498656        13.5691 
 329   0.0000       0.501943        13.6586 
 330   0.0000       0.503072        13.6893 
 331   0.0000       0.510205        13.8834 
 332   0.0000       0.513470        13.9722 
 333   0.0000       0.515747        14.0342 
 334   0.0000       0.519719        14.1423 
 335   0.0000       0.523016        14.2320 
 336   0.0000       0.523402        14.2425 
 337   0.0000       0.527188        14.3455 
 338   0.0000       0.529512        14.4087 
 339   0.0000       0.534447        14.5431 
 340   0.0000       0.536785        14.6067 
 341   0.0000       0.537003        14.6126 
 342   0.0000       0.539911        14.6917 
 343   0.0000       0.539996        14.6940 
 344   0.0000       0.547108        14.8876 
 345   0.0000       0.549733        14.9590 
 346   0.0000       0.552359        15.0305 
 347   0.0000       0.557387        15.1673 
 348   0.0000       0.559000        15.2112 
 349   0.0000       0.561671        15.2838 
 350   0.0000       0.564406        15.3583 
 351   0.0000       0.566501        15.4153 
 352   0.0000       0.572121        15.5682 
 353   0.0000       0.573192        15.5973 
 354   0.0000       0.575149        15.6506 
 355   0.0000       0.581128        15.8133 
 356   0.0000       0.581835        15.8325 
 357   0.0000       0.584330        15.9004 
 358   0.0000       0.589653        16.0453 
 359   0.0000       0.590192        16.0599 
 360   0.0000       0.591705        16.1011 
 361   0.0000       0.593190        16.1415 
 362   0.0000       0.597994        16.2722 
 363   0.0000       0.598548        16.2873 
 364   0.0000       0.598898        16.2968 
 365   0.0000       0.602056        16.3828 
 366   0.0000       0.606469        16.5029 
 367   0.0000       0.607550        16.5323 
 368   0.0000       0.614012        16.7081 
 369   0.0000       0.618409        16.8278 
 370   0.0000       0.622251        16.9323 
 371   0.0000       0.623275        16.9602 
 372   0.0000       0.624674        16.9982 
 373   0.0000       0.627480        17.0746 
 374   0.0000       0.631573        17.1860 
 375   0.0000       0.631835        17.1931 
 376   0.0000       0.639224        17.3942 
 377   0.0000       0.644716        17.5436 
 378   0.0000       0.650263        17.6946 
 379   0.0000       0.653600        17.7854 
 380   0.0000       0.654139        17.8000 
 381   0.0000       0.656930        17.8760 
 382   0.0000       0.659921        17.9574 
 383   0.0000       0.660876        17.9833 
 384   0.0000       0.666502        18.1364 
 385   0.0000       0.671027        18.2596 
 386   0.0000       0.672751        18.3065 
 387   0.0000       0.680477        18.5167 
 388   0.0000       0.683647        18.6030 
 389   0.0000       0.687027        18.6949 
 390   0.0000       0.692448        18.8425 
 391   0.0000       0.696292        18.9471 
 392   0.0000       0.698990        19.0205 
 393   0.0000       0.701883        19.0992 
 394   0.0000       0.707059        19.2401 
 395   0.0000       0.709906        19.3175 
 396   0.0000       0.711221        19.3533 
 397   0.0000       0.730515        19.8783 
 398   0.0000       0.744433        20.2570 
 399   0.0000       0.748721        20.3737 
 400   0.0000       0.754563        20.5327 
 401   0.0000       0.767608        20.8877 
 402   0.0000       0.773313        21.0429 
 403   0.0000       0.777430        21.1550 
 404   0.0000       0.784863        21.3572 
 405   0.0000       0.794999        21.6330 
 406   0.0000       0.801964        21.8226 
 407   0.0000       0.805885        21.9292 
 408   0.0000       0.808648        22.0044 
 409   0.0000       0.811648        22.0861 
 410   0.0000       0.813643        22.1403 
 411   0.0000       0.821293        22.3485 
 412   0.0000       0.826420        22.4880 
 413   0.0000       0.839111        22.8334 
 414   0.0000       0.840401        22.8685 
 415   0.0000       0.843958        22.9653 
 416   0.0000       0.848559        23.0905 
 417   0.0000       0.850304        23.1379 
 418   0.0000       0.862616        23.4730 
 419   0.0000       0.867227        23.5984 
 420   0.0000       0.872179        23.7332 
 421   0.0000       0.872989        23.7552 
 422   0.0000       0.875003        23.8101 
 423   0.0000       0.882057        24.0020 
 424   0.0000       0.888494        24.1772 
 425   0.0000       0.891797        24.2670 
 426   0.0000       0.898553        24.4509 
 427   0.0000       0.901958        24.5435 
 428   0.0000       0.908562        24.7232 
 429   0.0000       0.918944        25.0057 
 430   0.0000       0.923364        25.1260 
 431   0.0000       0.933484        25.4014 
 432   0.0000       0.937971        25.5235 
 433   0.0000       0.940925        25.6039 
 434   0.0000       0.945935        25.7402 
 435   0.0000       0.946060        25.7436 
 436   0.0000       0.950210        25.8565 
 437   0.0000       0.951098        25.8807 
 438   0.0000       0.957533        26.0558 
 439   0.0000       0.959354        26.1053 
 440   0.0000       0.968349        26.3501 
 441   0.0000       0.971012        26.4226 
 442   0.0000       0.976744        26.5785 
 443   0.0000       0.982952        26.7475 
 444   0.0000       0.984434        26.7878 
 445   0.0000       0.984443        26.7880 
 446   0.0000       0.989318        26.9207 
 447   0.0000       0.996186        27.1076 
 448   0.0000       0.997174        27.1345 
 449   0.0000       0.998836        27.1797 
 450   0.0000       0.999961        27.2103 
 451   0.0000       1.002710        27.2851 
 452   0.0000       1.021392        27.7935 
 453   0.0000       1.024211        27.8702 
 454   0.0000       1.025116        27.8948 
 455   0.0000       1.031619        28.0718 
 456   0.0000       1.033339        28.1186 
 457   0.0000       1.039450        28.2849 
 458   0.0000       1.040008        28.3001 
 459   0.0000       1.044628        28.4258 
 460   0.0000       1.046036        28.4641 
 461   0.0000       1.055530        28.7224 
 462   0.0000       1.056539        28.7499 
 463   0.0000       1.064456        28.9653 
 464   0.0000       1.066410        29.0185 
 465   0.0000       1.072067        29.1724 
 466   0.0000       1.074659        29.2430 
 467   0.0000       1.078661        29.3519 
 468   0.0000       1.081968        29.4418 
 469   0.0000       1.084186        29.5022 
 470   0.0000       1.087664        29.5968 
 471   0.0000       1.089635        29.6505 
 472   0.0000       1.093426        29.7536 
 473   0.0000       1.102292        29.9949 
 474   0.0000       1.105836        30.0913 
 475   0.0000       1.106764        30.1166 
 476   0.0000       1.112476        30.2720 
 477   0.0000       1.121645        30.5215 
 478   0.0000       1.125460        30.6253 
 479   0.0000       1.129370        30.7317 
 480   0.0000       1.131013        30.7764 
 481   0.0000       1.140449        31.0332 
 482   0.0000       1.141254        31.0551 
 483   0.0000       1.143556        31.1177 
 484   0.0000       1.146245        31.1909 
 485   0.0000       1.155238        31.4356 
 486   0.0000       1.163129        31.6504 
 487   0.0000       1.175349        31.9829 
 488   0.0000       1.177974        32.0543 
 489   0.0000       1.180074        32.1115 
 490   0.0000       1.191322        32.4175 
 491   0.0000       1.201894        32.7052 
 492   0.0000       1.207861        32.8676 
 493   0.0000       1.213252        33.0143 
 494   0.0000       1.222194        33.2576 
 495   0.0000       1.228723        33.4353 
 496   0.0000       1.238404        33.6987 
 497   0.0000       1.249398        33.9979 
 498   0.0000       1.251265        34.0487 
 499   0.0000       1.259323        34.2679 
 500   0.0000       1.270491        34.5718 
 501   0.0000       1.277172        34.7536 
 502   0.0000       1.284465        34.9521 
 503   0.0000       1.292498        35.1706 
 504   0.0000       1.299652        35.3653 
 505   0.0000       1.304322        35.4924 
 506   0.0000       1.307049        35.5666 
 507   0.0000       1.317391        35.8480 
 508   0.0000       1.332231        36.2518 
 509   0.0000       1.335647        36.3448 
 510   0.0000       1.353508        36.8308 
 511   0.0000       1.357074        36.9278 
 512   0.0000       1.367424        37.2095 
 513   0.0000       1.370361        37.2894 
 514   0.0000       1.370567        37.2950 
 515   0.0000       1.392755        37.8988 
 516   0.0000       1.397003        38.0144 
 517   0.0000       1.406006        38.2594 
 518   0.0000       1.410791        38.3896 
 519   0.0000       1.415269        38.5114 
 520   0.0000       1.419894        38.6373 
 521   0.0000       1.420378        38.6505 
 522   0.0000       1.423379        38.7321 
 523   0.0000       1.438827        39.1525 
 524   0.0000       1.441803        39.2335 
 525   0.0000       1.444588        39.3092 
 526   0.0000       1.449781        39.4505 
 527   0.0000       1.455490        39.6059 
 528   0.0000       1.457543        39.6618 
 529   0.0000       1.462380        39.7934 
 530   0.0000       1.474625        40.1266 
 531   0.0000       1.481931        40.3254 
 532   0.0000       1.484577        40.3974 
 533   0.0000       1.485157        40.4132 
 534   0.0000       1.487031        40.4642 
 535   0.0000       1.491482        40.5853 
 536   0.0000       1.494671        40.6721 
 537   0.0000       1.498123        40.7660 
 538   0.0000       1.498690        40.7814 
 539   0.0000       1.502284        40.8792 
 540   0.0000       1.504797        40.9476 
 541   0.0000       1.506176        40.9851 
 542   0.0000       1.509851        41.0851 
 543   0.0000       1.515429        41.2369 
 544   0.0000       1.516816        41.2747 
 545   0.0000       1.520063        41.3630 
 546   0.0000       1.529346        41.6156 
 547   0.0000       1.540136        41.9092 
 548   0.0000       1.543649        42.0048 
 549   0.0000       1.546462        42.0814 
 550   0.0000       1.551418        42.2162 
 551   0.0000       1.554092        42.2890 
 552   0.0000       1.562135        42.5079 
 553   0.0000       1.575067        42.8598 
 554   0.0000       1.577469        42.9251 
 555   0.0000       1.581073        43.0232 
 556   0.0000       1.584632        43.1200 
 557   0.0000       1.589227        43.2451 
 558   0.0000       1.594160        43.3793 
 559   0.0000       1.599851        43.5342 
 560   0.0000       1.600889        43.5624 
 561   0.0000       1.611625        43.8545 
 562   0.0000       1.616836        43.9964 
 563   0.0000       1.620452        44.0948 
 564   0.0000       1.631482        44.3949 
 565   0.0000       1.650243        44.9054 
 566   0.0000       1.658974        45.1430 
 567   0.0000       1.667883        45.3854 
 568   0.0000       1.671531        45.4847 
 569   0.0000       1.691069        46.0163 
 570   0.0000       1.694017        46.0965 
 571   0.0000       1.697700        46.1968 
 572   0.0000       1.699289        46.2400 
 573   0.0000       1.703608        46.3575 
 574   0.0000       1.714385        46.6508 
 575   0.0000       1.718811        46.7712 
 576   0.0000       1.731902        47.1274 
 577   0.0000       1.734308        47.1929 
 578   0.0000       1.740495        47.3613 
 579   0.0000       1.749597        47.6090 
 580   0.0000       1.753995        47.7286 
 581   0.0000       1.754629        47.7459 
 582   0.0000       1.766267        48.0626 
 583   0.0000       1.766669        48.0735 
 584   0.0000       1.775482        48.3133 
 585   0.0000       1.777472        48.3675 
 586   0.0000       1.780211        48.4420 
 587   0.0000       1.784188        48.5502 
 588   0.0000       1.784565        48.5605 
 589   0.0000       1.801649        49.0254 
 590   0.0000       1.808156        49.2024 
 591   0.0000       1.814205        49.3670 
 592   0.0000       1.815861        49.4121 
 593   0.0000       1.824023        49.6342 
 594   0.0000       1.827021        49.7158 
 595   0.0000       1.829274        49.7771 
 596   0.0000       1.830445        49.8090 
 597   0.0000       1.844404        50.1888 
 598   0.0000       1.845698        50.2240 
 599   0.0000       1.853472        50.4355 
 600   0.0000       1.856835        50.5271 
 601   0.0000       1.858352        50.5683 
 602   0.0000       1.861428        50.6520 
 603   0.0000       1.866254        50.7834 
 604   0.0000       1.875363        51.0312 
 605   0.0000       1.883799        51.2608 
 606   0.0000       1.884117        51.2694 
 607   0.0000       1.887888        51.3720 
 608   0.0000       1.900484        51.7148 
 609   0.0000       1.902279        51.7636 
 610   0.0000       1.906857        51.8882 
 611   0.0000       1.910884        51.9978 
 612   0.0000       1.913162        52.0598 
 613   0.0000       1.914547        52.0975 
 614   0.0000       1.922181        52.3052 
 615   0.0000       1.938533        52.7502 
 616   0.0000       1.947010        52.9808 
 617   0.0000       1.950811        53.0843 
 618   0.0000       1.964971        53.4696 
 619   0.0000       1.966782        53.5189 
 620   0.0000       1.981952        53.9317 
 621   0.0000       1.984703        54.0065 
 622   0.0000       1.989657        54.1413 
 623   0.0000       1.999573        54.4111 
 624   0.0000       2.016839        54.8810 
 625   0.0000       2.019971        54.9662 
 626   0.0000       2.027803        55.1793 
 627   0.0000       2.034952        55.3739 
 628   0.0000       2.046875        55.6983 
 629   0.0000       2.054746        55.9125 
 630   0.0000       2.066261        56.2258 
 631   0.0000       2.067013        56.2463 
 632   0.0000       2.089557        56.8597 
 633   0.0000       2.093818        56.9757 
 634   0.0000       2.100148        57.1479 
 635   0.0000       2.113031        57.4985 
 636   0.0000       2.128750        57.9262 
 637   0.0000       2.134195        58.0744 
 638   0.0000       2.137367        58.1607 
 639   0.0000       2.138589        58.1940 
 640   0.0000       2.138969        58.2043 
 641   0.0000       2.143084        58.3163 
 642   0.0000       2.152521        58.5731 
 643   0.0000       2.158001        58.7222 
 644   0.0000       2.174317        59.1662 
 645   0.0000       2.183713        59.4218 
 646   0.0000       2.192957        59.6734 
 647   0.0000       2.199737        59.8579 
 648   0.0000       2.205019        60.0016 
 649   0.0000       2.213809        60.2408 
 650   0.0000       2.220939        60.4348 
 651   0.0000       2.225100        60.5481 
 652   0.0000       2.228978        60.6536 
 653   0.0000       2.237423        60.8834 
 654   0.0000       2.242053        61.0094 
 655   0.0000       2.248147        61.1752 
 656   0.0000       2.254865        61.3580 
 657   0.0000       2.255741        61.3818 
 658   0.0000       2.270775        61.7909 
 659   0.0000       2.282413        62.1076 
 660   0.0000       2.291084        62.3436 
 661   0.0000       2.304669        62.7132 
 662   0.0000       2.313967        62.9663 
 663   0.0000       2.317658        63.0667 
 664   0.0000       2.338010        63.6205 
 665   0.0000       2.343627        63.7733 
 666   0.0000       2.344615        63.8002 
 667   0.0000       2.348688        63.9110 
 668   0.0000       2.368851        64.4597 
 669   0.0000       2.372571        64.5609 
 670   0.0000       2.377110        64.6845 
 671   0.0000       2.397450        65.2379 
 672   0.0000       2.398601        65.2693 
 673   0.0000       2.403198        65.3943 
 674   0.0000       2.412589        65.6499 
 675   0.0000       2.435418        66.2711 
 676   0.0000       2.441356        66.4327 
 677   0.0000       2.463399        67.0325 
 678   0.0000       2.485133        67.6239 
 679   0.0000       2.514242        68.4160 
 680   0.0000       2.559508        69.6478 
 681   0.0000       2.573900        70.0394 
 682   0.0000       2.579802        70.2000 
 683   0.0000       2.595402        70.6245 
 684   0.0000       2.605435        70.8975 
 685   0.0000       2.624201        71.4081 
 686   0.0000       2.635666        71.7201 
 687   0.0000       2.646495        72.0148 
 688   0.0000       2.658948        72.3537 
 689   0.0000       2.664330        72.5001 
 690   0.0000       2.671186        72.6867 
 691   0.0000       2.678746        72.8924 
 692   0.0000       2.679160        72.9036 
 693   0.0000       2.681938        72.9793 
 694   0.0000       2.685213        73.0684 
 695   0.0000       2.687321        73.1257 
 696   0.0000       2.689976        73.1980 
 697   0.0000       2.694655        73.3253 
 698   0.0000       2.700860        73.4941 
 699   0.0000       2.710758        73.7635 
 700   0.0000       2.712928        73.8225 
 701   0.0000       2.714004        73.8518 
 702   0.0000       2.725378        74.1613 
 703   0.0000       2.725991        74.1780 
 704   0.0000       2.737128        74.4810 
 705   0.0000       2.741677        74.6048 
 706   0.0000       2.742662        74.6316 
 707   0.0000       2.756356        75.0043 
 708   0.0000       2.758813        75.0711 
 709   0.0000       2.769421        75.3598 
 710   0.0000       2.770736        75.3956 
 711   0.0000       2.783169        75.7339 
 712   0.0000       2.787196        75.8435 
 713   0.0000       2.792093        75.9767 
 714   0.0000       2.806195        76.3604 
 715   0.0000       2.808766        76.4304 
 716   0.0000       2.814283        76.5805 
 717   0.0000       2.819746        76.7292 
 718   0.0000       2.832039        77.0637 
 719   0.0000       2.849847        77.5483 
 720   0.0000       2.852648        77.6245 
 721   0.0000       2.865728        77.9804 
 722   0.0000       2.867876        78.0389 
 723   0.0000       2.869652        78.0872 
 724   0.0000       2.887337        78.5684 
 725   0.0000       2.890836        78.6637 
 726   0.0000       2.898311        78.8671 
 727   0.0000       2.904701        79.0409 
 728   0.0000       2.912949        79.2654 
 729   0.0000       2.922837        79.5344 
 730   0.0000       2.929033        79.7030 
 731   0.0000       2.938593        79.9632 
 732   0.0000       2.941771        80.0496 
 733   0.0000       2.947262        80.1991 
 734   0.0000       2.951370        80.3109 
 735   0.0000       2.967120        80.7394 
 736   0.0000       2.969633        80.8078 
 737   0.0000       2.981903        81.1417 
 738   0.0000       2.988524        81.3219 
 739   0.0000       2.992782        81.4378 
 740   0.0000       2.996754        81.5458 
 741   0.0000       3.000599        81.6504 
 742   0.0000       3.002109        81.6915 
 743   0.0000       3.012705        81.9799 
 744   0.0000       3.026395        82.3524 
 745   0.0000       3.038659        82.6861 
 746   0.0000       3.044969        82.8578 
 747   0.0000       3.061399        83.3049 
 748   0.0000       3.073553        83.6356 
 749   0.0000       3.081273        83.8457 
 750   0.0000       3.088767        84.0496 
 751   0.0000       3.100434        84.3671 
 752   0.0000       3.112248        84.6886 
 753   0.0000       3.115447        84.7756 
 754   0.0000       3.125733        85.0555 
 755   0.0000       3.133600        85.2696 
 756   0.0000       3.137988        85.3890 
 757   0.0000       3.146356        85.6167 
 758   0.0000       3.153120        85.8008 
 759   0.0000       3.161666        86.0333 
 760   0.0000       3.173553        86.3568 
 761   0.0000       3.187874        86.7464 
 762   0.0000       3.202680        87.1494 
 763   0.0000       3.207795        87.2885 
 764   0.0000       3.230348        87.9022 
 765   0.0000       3.242744        88.2396 
 766   0.0000       3.261838        88.7591 
 767   0.0000       3.264206        88.8236 
 768   0.0000       3.305653        89.9514 
 769   0.0000       3.317707        90.2794 
 770   0.0000       3.330968        90.6402 
 771   0.0000       3.336433        90.7890 
 772   0.0000       3.364190        91.5443 
 773   0.0000       3.372726        91.7765 
 774   0.0000       3.397403        92.4480 
 775   0.0000       3.409818        92.7859 
 776   0.0000       3.419570        93.0512 
 777   0.0000       3.444549        93.7309 
 778   0.0000       3.480715        94.7151 
 779   0.0000       3.505350        95.3854 
 780   0.0000       3.524589        95.9089 
 781   0.0000       3.549654        96.5910 
 782   0.0000       3.570130        97.1482 
 783   0.0000       3.572869        97.2227 
 784   0.0000       3.602004        98.0155 
 785   0.0000       3.607394        98.1622 
 786   0.0000       3.614459        98.3544 
 787   0.0000       3.682845       100.2153 
 788   0.0000       3.699980       100.6816 
 789   0.0000       3.719314       101.2077 
 790   0.0000       3.749640       102.0329 
 791   0.0000       3.769445       102.5718 
 792   0.0000       3.771830       102.6367 
 793   0.0000       3.786198       103.0277 
 794   0.0000       3.791359       103.1681 
 795   0.0000       3.808882       103.6449 
 796   0.0000       3.835441       104.3677 
 797   0.0000       3.854535       104.8872 
 798   0.0000       3.855252       104.9067 
 799   0.0000       3.859637       105.0261 
 800   0.0000       3.898680       106.0885 
 801   0.0000       3.914039       106.5064 
 802   0.0000       3.918992       106.6412 
 803   0.0000       3.937775       107.1523 
 804   0.0000       3.962960       107.8376 
 805   0.0000       3.992675       108.6462 
 806   0.0000       4.043019       110.0161 
 807   0.0000       4.094550       111.4184 
 808   0.0000       4.130508       112.3968 
 809   0.0000       4.372234       118.9745 
 810   0.0000       4.456664       121.2720 
 811   0.0000       4.555113       123.9509 
 812   0.0000       4.585147       124.7682 
 813   0.0000       4.598412       125.1291 
 814   0.0000       4.615022       125.5811 
 815   0.0000       4.695958       127.7835 
 816   0.0000       4.827378       131.3596 
 817   0.0000       4.856885       132.1625 
 818   0.0000       4.918085       133.8279 
 819   0.0000       5.008702       136.2937 
 820   0.0000       5.013954       136.4366 
 821   0.0000       5.175151       140.8230 
 822   0.0000       5.357004       145.7715 
 823   0.0000       5.404362       147.0602 
 824   0.0000       5.424202       147.6000 
 825   0.0000       5.668880       154.2581 
 826   0.0000       5.726775       155.8335 
 827   0.0000       6.302265       171.4934 
 828   0.0000       6.416627       174.6053 
 829   0.0000       6.522195       177.4779 
 830   0.0000       8.508471       231.5273 
 831   0.0000      17.139962       466.4021 
 832   0.0000      17.632847       479.8142 
 833   0.0000      17.841590       485.4944 
 834   0.0000      23.297027       633.9443 
 835   0.0000      23.378137       636.1514 
 836   0.0000      23.445167       637.9754 
 837   0.0000      23.508796       639.7069 
 838   0.0000      23.558605       641.0622 
 839   0.0000      23.601881       642.2398 
 840   0.0000      23.610974       642.4873 
 841   0.0000      23.634090       643.1163 
 842   0.0000      23.654998       643.6852 
 843   0.0000      23.657680       643.7582 
 844   0.0000      23.663000       643.9030 
 845   0.0000      23.680841       644.3884 
 846   0.0000      23.687514       644.5700 
 847   0.0000      23.696728       644.8207 
 848   0.0000      23.714741       645.3109 
 849   0.0000      23.718787       645.4210 
 850   0.0000      23.728320       645.6804 
 851   0.0000      23.743636       646.0972 
 852   0.0000      23.762545       646.6117 
 853   0.0000      23.768024       646.7608 
 854   0.0000      23.783562       647.1836 
 855   0.0000      23.792268       647.4205 
 856   0.0000      23.807901       647.8459 
 857   0.0000      23.888557       650.0407 
 858   0.0000      35.450515       964.6576 
 859   0.0000      35.508860       966.2452 
 860   0.0000      49.911870      1358.1710 
 861   0.0000      49.968051      1359.6998 
 862   0.0000      49.992182      1360.3564 
 863   0.0000      66.763971      1816.7400 
 864   0.0000     189.633892      5160.2005 
Total SCF time: 0 days 0 hours 7 min 30 sec 

Maximum memory used throughout the entire SCF-calculation: 252.9 MB

-------------------------   --------------------
FINAL SINGLE POINT ENERGY     -1759.869308730863
-------------------------   --------------------


                            ***************************************
                            *     ORCA property calculations      *
                            ***************************************

                                    ---------------------
                                    Active property flags
                                    ---------------------
   (+) Dipole Moment


------------------------------------------------------------------------------
                       ORCA ELECTRIC PROPERTIES CALCULATION
------------------------------------------------------------------------------

Dipole Moment Calculation                       ... on
Quadrupole Moment Calculation                   ... off
Polarizability Calculation                      ... off
GBWName                                         ... GLASS_105239.gbw
Electron density                                ... GLASS_105239.scfp
The origin for moment calculation is the CENTER OF MASS  = (12.075313, -7.280755  0.000000)

-------------
DIPOLE MOMENT
-------------
                                X             Y             Z
Electronic contribution:    -40.00246      28.40224      -0.00000
Nuclear contribution   :     30.64326     -24.99017       0.00000
                        -----------------------------------------
Total Dipole Moment    :     -9.35920       3.41208      -0.00000
                        -----------------------------------------
Magnitude (a.u.)       :      9.96177
Magnitude (Debye)      :     25.32081



--------------------
Rotational spectrum 
--------------------
 
Rotational constants in cm-1:     0.009885     0.001031     0.000934 
Rotational constants in MHz :   296.344610    30.907162    27.988148 

 Dipole components along the rotational axes: 
x,y,z [a.u.] :     9.945476    -0.569583    -0.000002 
x,y,z [Debye]:    25.279391    -1.447765    -0.000005 

 

Timings for individual modules:

Sum of individual times         ...      452.803 sec (=   7.547 min)
GTO integral calculation        ...        2.174 sec (=   0.036 min)   0.5 %
SCF iterations                  ...      450.629 sec (=   7.510 min)  99.5 %
                             ****ORCA TERMINATED NORMALLY****
TOTAL RUN TIME: 0 days 0 hours 7 minutes 33 seconds 949 msec
